  39  39   0   0
  0.1495385E+03  0.1800000E-08  0.1800000E-08  0.1800000E-08  0.1000000E-15
  1.000000000000000E-004
  CAR 
 Pt cube particle                        
      3.44620341    -22.28054801  301     -3.38340796      1.00000000
    -22.281  0.0000E+00  0.0000E+00
    -22.195  0.0000E+00  0.0000E+00
    -22.109  0.0000E+00  0.0000E+00
    -22.023  0.0000E+00  0.0000E+00
    -21.938  0.0000E+00  0.0000E+00
    -21.852  0.0000E+00  0.0000E+00
    -21.766  0.0000E+00  0.0000E+00
    -21.680  0.0000E+00  0.0000E+00
    -21.595  0.0000E+00  0.0000E+00
    -21.509  0.0000E+00  0.0000E+00
    -21.423  0.3107E-16  0.2665E-17
    -21.337  0.3656E-14  0.3162E-15
    -21.251  0.3053E-12  0.2650E-13
    -21.166  0.1775E-10  0.1549E-11
    -21.080  0.7185E-09  0.6316E-10
    -20.994  0.2027E-07  0.1801E-08
    -20.908  0.3987E-06  0.3599E-07
    -20.823  0.5471E-05  0.5052E-06
    -20.737  0.5242E-04  0.5000E-05
    -20.651  0.3509E-03  0.3509E-04
    -20.565  0.1642E-02  0.1759E-03
    -20.480  0.5371E-02  0.6365E-03
    -20.394  0.1230E-01  0.1691E-02
    -20.308  0.1970E-01  0.3381E-02
    -20.222  0.2210E-01  0.5276E-02
    -20.137  0.1736E-01  0.6764E-02
    -20.051  0.9539E-02  0.7582E-02
    -19.965  0.3670E-02  0.7897E-02
    -19.879  0.9875E-03  0.7982E-02
    -19.794  0.1858E-03  0.7998E-02
    -19.708  0.2444E-04  0.8000E-02
    -19.622  0.2244E-05  0.8000E-02
    -19.536  0.1439E-06  0.8000E-02
    -19.451  0.6435E-08  0.8000E-02
    -19.365  0.2006E-09  0.8000E-02
    -19.279  0.4357E-11  0.8000E-02
    -19.193  0.6588E-13  0.8000E-02
    -19.108  0.7043E-15  0.8000E-02
    -19.022  0.0000E+00  0.8000E-02
    -18.936  0.0000E+00  0.8000E-02
    -18.850  0.0000E+00  0.8000E-02
    -18.765  0.0000E+00  0.8000E-02
    -18.679  0.0000E+00  0.8000E-02
    -18.593  0.0000E+00  0.8000E-02
    -18.507  0.0000E+00  0.8000E-02
    -18.422  0.0000E+00  0.8000E-02
    -18.336  0.0000E+00  0.8000E-02
    -18.250  0.0000E+00  0.8000E-02
    -18.164  0.0000E+00  0.8000E-02
    -18.079  0.0000E+00  0.8000E-02
    -17.993  0.0000E+00  0.8000E-02
    -17.907  0.0000E+00  0.8000E-02
    -17.821  0.0000E+00  0.8000E-02
    -17.735  0.0000E+00  0.8000E-02
    -17.650  0.0000E+00  0.8000E-02
    -17.564  0.0000E+00  0.8000E-02
    -17.478  0.0000E+00  0.8000E-02
    -17.392  0.0000E+00  0.8000E-02
    -17.307  0.0000E+00  0.8000E-02
    -17.221  0.0000E+00  0.8000E-02
    -17.135  0.0000E+00  0.8000E-02
    -17.049  0.0000E+00  0.8000E-02
    -16.964  0.0000E+00  0.8000E-02
    -16.878  0.0000E+00  0.8000E-02
    -16.792  0.0000E+00  0.8000E-02
    -16.706  0.0000E+00  0.8000E-02
    -16.621  0.0000E+00  0.8000E-02
    -16.535  0.0000E+00  0.8000E-02
    -16.449  0.0000E+00  0.8000E-02
    -16.363  0.0000E+00  0.8000E-02
    -16.278  0.0000E+00  0.8000E-02
    -16.192  0.0000E+00  0.8000E-02
    -16.106  0.0000E+00  0.8000E-02
    -16.020  0.0000E+00  0.8000E-02
    -15.935  0.0000E+00  0.8000E-02
    -15.849  0.0000E+00  0.8000E-02
    -15.763  0.0000E+00  0.8000E-02
    -15.677  0.0000E+00  0.8000E-02
    -15.592  0.0000E+00  0.8000E-02
    -15.506  0.0000E+00  0.8000E-02
    -15.420  0.0000E+00  0.8000E-02
    -15.334  0.0000E+00  0.8000E-02
    -15.249  0.0000E+00  0.8000E-02
    -15.163  0.0000E+00  0.8000E-02
    -15.077  0.0000E+00  0.8000E-02
    -14.991  0.0000E+00  0.8000E-02
    -14.906  0.0000E+00  0.8000E-02
    -14.820  0.0000E+00  0.8000E-02
    -14.734  0.0000E+00  0.8000E-02
    -14.648  0.0000E+00  0.8000E-02
    -14.563  0.0000E+00  0.8000E-02
    -14.477  0.0000E+00  0.8000E-02
    -14.391  0.0000E+00  0.8000E-02
    -14.305  0.0000E+00  0.8000E-02
    -14.219  0.0000E+00  0.8000E-02
    -14.134  0.0000E+00  0.8000E-02
    -14.048  0.0000E+00  0.8000E-02
    -13.962  0.0000E+00  0.8000E-02
    -13.876  0.0000E+00  0.8000E-02
    -13.791  0.0000E+00  0.8000E-02
    -13.705  0.0000E+00  0.8000E-02
    -13.619  0.0000E+00  0.8000E-02
    -13.533  0.0000E+00  0.8000E-02
    -13.448  0.0000E+00  0.8000E-02
    -13.362  0.0000E+00  0.8000E-02
    -13.276  0.0000E+00  0.8000E-02
    -13.190  0.0000E+00  0.8000E-02
    -13.105  0.0000E+00  0.8000E-02
    -13.019  0.0000E+00  0.8000E-02
    -12.933  0.0000E+00  0.8000E-02
    -12.847  0.0000E+00  0.8000E-02
    -12.762  0.0000E+00  0.8000E-02
    -12.676  0.0000E+00  0.8000E-02
    -12.590  0.0000E+00  0.8000E-02
    -12.504  0.0000E+00  0.8000E-02
    -12.419  0.0000E+00  0.8000E-02
    -12.333  0.0000E+00  0.8000E-02
    -12.247  0.0000E+00  0.8000E-02
    -12.161  0.0000E+00  0.8000E-02
    -12.076  0.0000E+00  0.8000E-02
    -11.990  0.0000E+00  0.8000E-02
    -11.904  0.1554E-16  0.8000E-02
    -11.818  0.1699E-14  0.8000E-02
    -11.733  0.1510E-12  0.8000E-02
    -11.647  0.9315E-11  0.8000E-02
    -11.561  0.4002E-09  0.8000E-02
    -11.475  0.1198E-07  0.8000E-02
    -11.390  0.2501E-06  0.8000E-02
    -11.304  0.3642E-05  0.8000E-02
    -11.218  0.3702E-04  0.8004E-02
    -11.132  0.2629E-03  0.8026E-02
    -11.047  0.1305E-02  0.8138E-02
    -10.961  0.4528E-02  0.8526E-02
    -10.875  0.1099E-01  0.9469E-02
    -10.789  0.1868E-01  0.1107E-01
    -10.704  0.2223E-01  0.1298E-01
    -10.618  0.1851E-01  0.1456E-01
    -10.532  0.1079E-01  0.1549E-01
    -10.446  0.4402E-02  0.1587E-01
    -10.360  0.1257E-02  0.1598E-01
    -10.275  0.2562E-03  0.1600E-01
    -10.189  0.8897E-04  0.1600E-01
    -10.103  0.3877E-03  0.1604E-01
    -10.017  0.1939E-02  0.1620E-01
     -9.932  0.6965E-02  0.1680E-01
     -9.846  0.1794E-01  0.1834E-01
     -9.760  0.3356E-01  0.2122E-01
     -9.674  0.4690E-01  0.2524E-01
     -9.589  0.5226E-01  0.2972E-01
     -9.503  0.5307E-01  0.3427E-01
     -9.417  0.5828E-01  0.3927E-01
     -9.331  0.7398E-01  0.4562E-01
     -9.246  0.1010E+00  0.5428E-01
     -9.160  0.1350E+00  0.6585E-01
     -9.074  0.1665E+00  0.8013E-01
     -8.988  0.1911E+00  0.9652E-01
     -8.903  0.2218E+00  0.1155E+00
     -8.817  0.2772E+00  0.1393E+00
     -8.731  0.3563E+00  0.1699E+00
     -8.645  0.4361E+00  0.2073E+00
     -8.560  0.4871E+00  0.2490E+00
     -8.474  0.4886E+00  0.2909E+00
     -8.388  0.4457E+00  0.3292E+00
     -8.302  0.3910E+00  0.3627E+00
     -8.217  0.3577E+00  0.3934E+00
     -8.131  0.3615E+00  0.4244E+00
     -8.045  0.3996E+00  0.4586E+00
     -7.959  0.4552E+00  0.4977E+00
     -7.874  0.5099E+00  0.5414E+00
     -7.788  0.5531E+00  0.5888E+00
     -7.702  0.5776E+00  0.6384E+00
     -7.616  0.5868E+00  0.6887E+00
     -7.531  0.5947E+00  0.7397E+00
     -7.445  0.6022E+00  0.7913E+00
     -7.359  0.5903E+00  0.8419E+00
     -7.273  0.5428E+00  0.8885E+00
     -7.188  0.4625E+00  0.9282E+00
     -7.102  0.3785E+00  0.9606E+00
     -7.016  0.3413E+00  0.9899E+00
     -6.930  0.3806E+00  0.1023E+01
     -6.844  0.4778E+00  0.1064E+01
     -6.759  0.5967E+00  0.1115E+01
     -6.673  0.7052E+00  0.1175E+01
     -6.587  0.7581E+00  0.1240E+01
     -6.501  0.7217E+00  0.1302E+01
     -6.416  0.6245E+00  0.1356E+01
     -6.330  0.5282E+00  0.1401E+01
     -6.244  0.4550E+00  0.1440E+01
     -6.158  0.3864E+00  0.1473E+01
     -6.073  0.3117E+00  0.1500E+01
     -5.987  0.2445E+00  0.1521E+01
     -5.901  0.2025E+00  0.1538E+01
     -5.815  0.1871E+00  0.1554E+01
     -5.730  0.1785E+00  0.1569E+01
     -5.644  0.1545E+00  0.1583E+01
     -5.558  0.1121E+00  0.1592E+01
     -5.472  0.6884E-01  0.1598E+01
     -5.387  0.4155E-01  0.1602E+01
     -5.301  0.2946E-01  0.1604E+01
     -5.215  0.2174E-01  0.1606E+01
     -5.129  0.1329E-01  0.1607E+01
     -5.044  0.6793E-02  0.1608E+01
     -4.958  0.5685E-02  0.1608E+01
     -4.872  0.1113E-01  0.1609E+01
     -4.786  0.2243E-01  0.1611E+01
     -4.701  0.3734E-01  0.1614E+01
     -4.615  0.5365E-01  0.1619E+01
     -4.529  0.6957E-01  0.1625E+01
     -4.443  0.8247E-01  0.1632E+01
     -4.358  0.8951E-01  0.1640E+01
     -4.272  0.8891E-01  0.1647E+01
     -4.186  0.8161E-01  0.1654E+01
     -4.100  0.7103E-01  0.1661E+01
     -4.015  0.5809E-01  0.1665E+01
     -3.929  0.4208E-01  0.1669E+01
     -3.843  0.2818E-01  0.1672E+01
     -3.757  0.2575E-01  0.1674E+01
     -3.672  0.3796E-01  0.1677E+01
     -3.586  0.5691E-01  0.1682E+01
     -3.500  0.7020E-01  0.1688E+01
     -3.414  0.7110E-01  0.1694E+01
     -3.329  0.6151E-01  0.1699E+01
     -3.243  0.4841E-01  0.1703E+01
     -3.157  0.3761E-01  0.1707E+01
     -3.071  0.2926E-01  0.1709E+01
     -2.985  0.2230E-01  0.1711E+01
     -2.900  0.2202E-01  0.1713E+01
     -2.814  0.3752E-01  0.1716E+01
     -2.728  0.7027E-01  0.1722E+01
     -2.642  0.1067E+00  0.1731E+01
     -2.557  0.1267E+00  0.1742E+01
     -2.471  0.1215E+00  0.1753E+01
     -2.385  0.9939E-01  0.1761E+01
     -2.299  0.7503E-01  0.1768E+01
     -2.214  0.5903E-01  0.1773E+01
     -2.128  0.5370E-01  0.1777E+01
     -2.042  0.5602E-01  0.1782E+01
     -1.956  0.6348E-01  0.1787E+01
     -1.871  0.7610E-01  0.1794E+01
     -1.785  0.9078E-01  0.1802E+01
     -1.699  0.9607E-01  0.1810E+01
     -1.613  0.8261E-01  0.1817E+01
     -1.528  0.5788E-01  0.1822E+01
     -1.442  0.3838E-01  0.1825E+01
     -1.356  0.2963E-01  0.1828E+01
     -1.270  0.2615E-01  0.1830E+01
     -1.185  0.2789E-01  0.1833E+01
     -1.099  0.4472E-01  0.1836E+01
     -1.013  0.8105E-01  0.1843E+01
     -0.927  0.1207E+00  0.1854E+01
     -0.842  0.1371E+00  0.1865E+01
     -0.756  0.1222E+00  0.1876E+01
     -0.670  0.9439E-01  0.1884E+01
     -0.584  0.7712E-01  0.1891E+01
     -0.499  0.7698E-01  0.1897E+01
     -0.413  0.8326E-01  0.1904E+01
     -0.327  0.8438E-01  0.1912E+01
     -0.241  0.8231E-01  0.1919E+01
     -0.156  0.8791E-01  0.1926E+01
     -0.070  0.1015E+00  0.1935E+01
      0.016  0.1066E+00  0.1944E+01
      0.102  0.9015E-01  0.1952E+01
      0.187  0.6031E-01  0.1957E+01
      0.273  0.3676E-01  0.1960E+01
      0.359  0.3038E-01  0.1963E+01
      0.445  0.3679E-01  0.1966E+01
      0.531  0.4637E-01  0.1970E+01
      0.616  0.5802E-01  0.1975E+01
      0.702  0.8124E-01  0.1982E+01
      0.788  0.1206E+00  0.1992E+01
      0.874  0.1620E+00  0.2006E+01
      0.959  0.1859E+00  0.2022E+01
      1.045  0.1896E+00  0.2038E+01
      1.131  0.1832E+00  0.2054E+01
      1.217  0.1728E+00  0.2069E+01
      1.302  0.1572E+00  0.2082E+01
      1.388  0.1340E+00  0.2094E+01
      1.474  0.1016E+00  0.2102E+01
      1.560  0.6414E-01  0.2108E+01
      1.645  0.3175E-01  0.2111E+01
      1.731  0.1181E-01  0.2112E+01
      1.817  0.3213E-02  0.2112E+01
      1.903  0.6292E-03  0.2112E+01
      1.988  0.8780E-04  0.2112E+01
      2.074  0.8672E-05  0.2112E+01
      2.160  0.6036E-06  0.2112E+01
      2.246  0.2951E-07  0.2112E+01
      2.331  0.1011E-08  0.2112E+01
      2.417  0.2424E-10  0.2112E+01
      2.503  0.4060E-12  0.2112E+01
      2.589  0.4744E-14  0.2112E+01
      2.674  0.4143E-16  0.2112E+01
      2.760  0.0000E+00  0.2112E+01
      2.846  0.0000E+00  0.2112E+01
      2.932  0.0000E+00  0.2112E+01
      3.017  0.0000E+00  0.2112E+01
      3.103  0.0000E+00  0.2112E+01
      3.189  0.0000E+00  0.2112E+01
      3.275  0.0000E+00  0.2112E+01
      3.360  0.0000E+00  0.2112E+01
      3.446  0.0000E+00  0.2112E+01
