   39   39  250    1
  0.1495385E+03  0.1800000E-08  0.1800000E-08  0.1800000E-08  0.1000000E-15
  1.000000000000000E-004
  CAR 
 Pt cube particle                        
  424    1  264
 
  0.0000000E+00  0.0000000E+00  0.0000000E+00  0.1000000E+01
   1      -20.280548
   2      -10.747516
   3       -9.728452
   4       -9.653284
   5       -9.455704
   6       -9.279446
   7       -9.267676
   8       -9.115694
   9       -9.100990
  10       -9.087217
  11       -9.076509
  12       -9.049226
  13       -8.966080
  14       -8.888905
  15       -8.885549
  16       -8.802426
  17       -8.773256
  18       -8.767119
  19       -8.752661
  20       -8.745848
  21       -8.736585
  22       -8.724796
  23       -8.684440
  24       -8.682277
  25       -8.666655
  26       -8.620747
  27       -8.590472
  28       -8.588609
  29       -8.578028
  30       -8.569027
  31       -8.550580
  32       -8.547074
  33       -8.541314
  34       -8.532693
  35       -8.529797
  36       -8.511464
  37       -8.504943
  38       -8.502213
  39       -8.486820
  40       -8.440165
  41       -8.407716
  42       -8.401728
  43       -8.394353
  44       -8.387868
  45       -8.296765
  46       -8.283646
  47       -8.281212
  48       -8.271790
  49       -8.239833
  50       -8.231615
  51       -8.221571
  52       -8.117943
  53       -8.105399
  54       -8.092293
  55       -8.086217
  56       -8.063120
  57       -8.021014
  58       -8.006826
  59       -7.999361
  60       -7.996962
  61       -7.981001
  62       -7.967871
  63       -7.961234
  64       -7.948754
  65       -7.920894
  66       -7.903389
  67       -7.874004
  68       -7.849754
  69       -7.846618
  70       -7.825032
  71       -7.808828
  72       -7.789457
  73       -7.781010
  74       -7.771907
  75       -7.767015
  76       -7.756998
  77       -7.749945
  78       -7.746689
  79       -7.740674
  80       -7.734288
  81       -7.709568
  82       -7.687430
  83       -7.673741
  84       -7.656274
  85       -7.645472
  86       -7.628057
  87       -7.602222
  88       -7.594788
  89       -7.586126
  90       -7.554788
  91       -7.535963
  92       -7.533128
  93       -7.506874
  94       -7.491043
  95       -7.484831
  96       -7.473748
  97       -7.473621
  98       -7.462844
  99       -7.455463
 100       -7.447644
 101       -7.440541
 102       -7.430237
 103       -7.412025
 104       -7.395200
 105       -7.387683
 106       -7.374383
 107       -7.344725
 108       -7.334395
 109       -7.331708
 110       -7.300355
 111       -7.288224
 112       -7.268297
 113       -7.259724
 114       -7.250807
 115       -7.240790
 116       -7.220250
 117       -7.212521
 118       -7.206225
 119       -7.193533
 120       -7.172815
 121       -7.169165
 122       -7.117060
 123       -6.956292
 124       -6.955422
 125       -6.943185
 126       -6.934758
 127       -6.926357
 128       -6.905192
 129       -6.903537
 130       -6.867558
 131       -6.858200
 132       -6.855185
 133       -6.833558
 134       -6.821403
 135       -6.805263
 136       -6.798160
 137       -6.782351
 138       -6.776177
 139       -6.742090
 140       -6.711279
 141       -6.700009
 142       -6.679704
 143       -6.674644
 144       -6.670202
 145       -6.665436
 146       -6.657097
 147       -6.653003
 148       -6.646938
 149       -6.646438
 150       -6.633784
 151       -6.623360
 152       -6.621746
 153       -6.612428
 154       -6.611777
 155       -6.605047
 156       -6.595502
 157       -6.586959
 158       -6.582464
 159       -6.575406
 160       -6.566356
 161       -6.564494
 162       -6.550507
 163       -6.544702
 164       -6.539714
 165       -6.532374
 166       -6.516892
 167       -6.506724
 168       -6.484250
 169       -6.448348
 170       -6.435072
 171       -6.414718
 172       -6.399098
 173       -6.385119
 174       -6.358977
 175       -6.330157
 176       -6.311484
 177       -6.289914
 178       -6.279981
 179       -6.278752
 180       -6.277523
 181       -6.271695
 182       -6.248951
 183       -6.240285
 184       -6.208226
 185       -6.189325
 186       -6.154243
 187       -6.108369
 188       -6.106852
 189       -6.074196
 190       -6.049184
 191       -6.034996
 192       -5.938853
 193       -5.850287
 194       -5.826723
 195       -5.806813
 196       -5.789544
 197       -5.706461
 198       -5.681770
 199       -5.659564
 200       -5.636990
 201       -5.322661
 202       -4.728644
 203       -4.536559
 204       -4.514084
 205       -4.376362
 206       -4.304380
 207       -4.270593
 208       -4.092724
 209       -4.026833
 210       -3.604430
 211       -3.574027
 212       -3.440579
 213       -3.367434
 214       -3.128738
 215       -2.695122
 216       -2.664040
 217       -2.624268
 218       -2.595583
 219       -2.545853
 220       -2.438894
 221       -2.431741
 222       -2.228884
 223       -2.062151
 224       -1.939661
 225       -1.786124
 226       -1.735102
 227       -1.715264
 228       -1.670801
 229       -1.358617
 230       -0.957503
 231       -0.942258
 232       -0.932390
 233       -0.915739
 234       -0.860182
 235       -0.815744
 236       -0.718305
 237       -0.511505
 238       -0.469186
 239       -0.365351
 240       -0.321271
 241       -0.098019
 242       -0.063435
 243       -0.050813
 244        0.032423
 245        0.059554
 246        0.434214
 247        0.567017
 248        0.810046
 249        0.817264
 250        0.830563
 251        0.854937
 252        0.909835
 253        0.925059
 254        0.971857
 255        1.055143
 256        1.067843
 257        1.107041
 258        1.175410
 259        1.203186
 260        1.221615
 261        1.318265
 262        1.347663
 263        1.423581
 264        1.446203
