TACC: Setting memory limits for job 1684372 to unlimited KB
TACC: Dumping job script:
--------------------------------------------------------------------------------
#!/bin/bash
#$ -N j6Au_32Ag_sno 
#$ -cwd
#$ -j y
#$ -o ll_out
#$ -q normal
#$ -A FRI.Stream.Henkelman
#$ -m e
#$ -l h_rt=06:00:00
#$ -pe 12way 24
#$ -M marcodavidhoward@gmail.com
#$ -V

set -x
ibrun ~zach/bin/vasp_fri_gamma
--------------------------------------------------------------------------------
TACC: Done.
+ ibrun /home1/00921/zach/bin/vasp_fri_gamma
TACC: Starting up job 1684372
TACC: Setting up parallel environment for MVAPICH ssh-based mpirun.
TACC: Setup complete. Running job script.
TACC: starting parallel tasks...
/home1/02058/mdh2736/.bashrc: line 10: /home1/00405/graeme/fri/pre/bashrc: No such file or directory
/home1/02058/mdh2736/.bashrc: line 10: /home1/00405/graeme/fri/pre/bashrc: No such file or directory
 running on   24 nodes
 distr:  one band on    1 nodes,   24 groups
 vasp.5.2.12 26May11 complex 
 POSCAR found :  3 types and      39 ions
 LDA part: xc-table for Ceperly-Alder, standard interpolation
 POSCAR found :  3 types and      39 ions
 POSCAR, INCAR and KPOINTS ok, starting setup
 WARNING: small aliasing (wrap around) errors must be expected
 FFT: planning ...(           1 )
 WAVECAR not read
 entering main loop
       N       E                     dE             d eps       ncg     rms          rms(c)
DAV:   1     0.309943249986E+04    0.30994E+04   -0.99218E+04   528   0.709E+02
DAV:   2     0.356094083026E+03   -0.27433E+04   -0.25081E+04   720   0.211E+02
DAV:   3    -0.617656378159E+02   -0.41786E+03   -0.39651E+03   624   0.977E+01
DAV:   4    -0.768453394839E+02   -0.15080E+02   -0.14481E+02   600   0.222E+01
DAV:   5    -0.771606868309E+02   -0.31535E+00   -0.31455E+00   600   0.227E+00    0.179E+01
RMM:   6    -0.685619233602E+02    0.85988E+01   -0.28913E+01   528   0.122E+01    0.478E+00
RMM:   7    -0.679512870872E+02    0.61064E+00   -0.26704E+00   528   0.294E+00    0.546E+00
RMM:   8    -0.674952291743E+02    0.45606E+00   -0.52693E-01   529   0.853E-01    0.177E+00
RMM:   9    -0.673348056756E+02    0.16042E+00   -0.77831E-02   529   0.604E-01    0.769E-01
RMM:  10    -0.673056844521E+02    0.29121E-01   -0.20217E-02   529   0.258E-01    0.190E-01
RMM:  11    -0.673032024359E+02    0.24820E-02   -0.28819E-03   528   0.812E-02    0.879E-02
RMM:  12    -0.673028556107E+02    0.34683E-03   -0.19411E-03   528   0.563E-02    0.618E-02
RMM:  13    -0.673059322642E+02   -0.30767E-02   -0.17296E-03   528   0.544E-02    0.309E-02
RMM:  14    -0.673100507391E+02   -0.41185E-02   -0.79617E-04   528   0.289E-02    0.203E-02
RMM:  15    -0.673150321533E+02   -0.49814E-02   -0.14471E-03   528   0.314E-02    0.132E-02
RMM:  16    -0.673165717740E+02   -0.15396E-02   -0.52349E-04   529   0.165E-02    0.962E-03
RMM:  17    -0.673171841947E+02   -0.61242E-03   -0.14812E-04   518   0.916E-03    0.293E-03
RMM:  18    -0.673174032657E+02   -0.21907E-03   -0.22504E-05   363   0.391E-03    0.243E-03
RMM:  19    -0.673176031592E+02   -0.19989E-03   -0.28181E-05   380   0.420E-03    0.155E-03
RMM:  20    -0.673176785667E+02   -0.75408E-04   -0.10310E-05   342   0.214E-03    0.932E-04
RMM:  21    -0.673177057666E+02   -0.27200E-04   -0.55273E-06   312   0.142E-03    0.531E-04
RMM:  22    -0.673177097848E+02   -0.40182E-05   -0.13975E-06   231   0.771E-04    0.292E-04
RMM:  23    -0.673177096550E+02    0.12980E-06   -0.24554E-07   169   0.533E-04
   1 F= -.67317710E+02 E0= -.67174748E+02  d E =-.673177E+02
 curvature:   0.00 expect dE= 0.000E+00 dE for cont linesearch  0.000E+00
 trial: gam= 0.00000 g(F)=  0.166E+03 g(S)=  0.000E+00 ort = 0.000E+00 (trialstep = 0.100E+01)
 search vector abs. value=  0.166E+03
 bond charge predicted
       N       E                     dE             d eps       ncg     rms          rms(c)
DAV:   1    -0.507728016975E+02    0.16545E+02   -0.47045E+03   528   0.802E+01    0.161E+01
RMM:   2    -0.820370675313E+02   -0.31264E+02   -0.33396E+02   539   0.259E+01    0.905E+00
RMM:   3    -0.796215270196E+02    0.24155E+01   -0.36220E+01   540   0.739E+00    0.131E+01
RMM:   4    -0.740464190179E+02    0.55751E+01   -0.48259E+00   528   0.178E+00    0.715E+00
RMM:   5    -0.830212591827E+02   -0.89748E+01   -0.11680E+00   528   0.938E-01    0.277E+01
RMM:   6    -0.746806296739E+02    0.83406E+01   -0.11214E+01   528   0.173E+00    0.794E+00
RMM:   7    -0.754171648826E+02   -0.73654E+00   -0.13104E+00   528   0.975E-01    0.978E+00
RMM:   8    -0.728704747564E+02    0.25467E+01   -0.14391E+00   528   0.639E-01    0.259E+00
RMM:   9    -0.728368189612E+02    0.33656E-01   -0.47733E-02   530   0.153E-01    0.249E+00
RMM:  10    -0.730595127240E+02   -0.22269E+00   -0.79736E-02   528   0.137E-01    0.537E+00
RMM:  11    -0.728020861859E+02    0.25743E+00   -0.34586E-02   528   0.119E-01    0.102E+00
RMM:  12    -0.728804489144E+02   -0.78363E-01   -0.15494E-02   529   0.101E-01    0.599E+00
RMM:  13    -0.728530023271E+02    0.27447E-01   -0.44193E-03   528   0.942E-02    0.459E+00
RMM:  14    -0.728266488558E+02    0.26353E-01   -0.40540E-02   528   0.112E-01    0.263E+00
RMM:  15    -0.727887919182E+02    0.37857E-01   -0.10743E-02   528   0.109E-01    0.131E+00
RMM:  16    -0.728042680676E+02   -0.15476E-01   -0.18566E-02   528   0.101E-01    0.208E+00
RMM:  17    -0.728969217439E+02   -0.92654E-01   -0.14422E-02   528   0.940E-02    0.600E+00
RMM:  18    -0.727910518951E+02    0.10587E+00   -0.10326E-02   528   0.114E-01    0.347E-01
RMM:  19    -0.728016461021E+02   -0.10594E-01   -0.25486E-03   528   0.711E-02    0.488E-01
RMM:  20    -0.728022408576E+02   -0.59476E-03   -0.64366E-04   528   0.264E-02    0.324E-01
RMM:  21    -0.728052049339E+02   -0.29641E-02   -0.54152E-04   528   0.216E-02    0.931E-01
RMM:  22    -0.728031614318E+02    0.20435E-02   -0.24530E-04   528   0.148E-02    0.369E-01
RMM:  23    -0.728035690372E+02   -0.40761E-03   -0.32103E-04   528   0.169E-02    0.130E-01
RMM:  24    -0.728038214079E+02   -0.25237E-03   -0.15730E-04   515   0.153E-02    0.333E-02
RMM:  25    -0.728040134473E+02   -0.19204E-03   -0.78779E-05   397   0.556E-03    0.883E-02
RMM:  26    -0.728040617289E+02   -0.48282E-04   -0.24783E-05   347   0.377E-03    0.145E-02
RMM:  27    -0.728040941395E+02   -0.32411E-04   -0.19846E-05   344   0.431E-03    0.438E-02
RMM:  28    -0.728040990552E+02   -0.49157E-05   -0.32201E-06   332   0.169E-03    0.111E-02
RMM:  29    -0.728041060419E+02   -0.69867E-05   -0.19989E-06   318   0.162E-03    0.323E-02
RMM:  30    -0.728041046659E+02    0.13760E-05   -0.10901E-06   306   0.104E-03    0.531E-03
RMM:  31    -0.728041052995E+02   -0.63358E-06   -0.57722E-07   194   0.711E-04
   2 F= -.72804105E+02 E0= -.72600693E+02  d E =-.548640E+01
 trial-energy change:   -5.486396  1 .order  -69.179127 -165.724328   27.366074
 step:   0.8583(harm=  0.8583)  dis= 0.67090  next Energy=  -138.436089 (dE=-0.711E+02)
 bond charge predicted
       N       E                     dE             d eps       ncg     rms          rms(c)
DAV:   1    -0.760273404822E+02   -0.32232E+01   -0.19818E+02   552   0.161E+01    0.205E+00
RMM:   2    -0.766011073890E+02   -0.57377E+00   -0.26968E+00   528   0.263E+00    0.103E+01
RMM:   3    -0.762626506117E+02    0.33846E+00   -0.19138E-01   530   0.420E-01    0.200E+00
RMM:   4    -0.762905632600E+02   -0.27913E-01   -0.30922E-02   528   0.253E-01    0.147E+00
RMM:   5    -0.762823893083E+02    0.81740E-02   -0.23246E-02   528   0.201E-01    0.351E-01
RMM:   6    -0.762819403508E+02    0.44896E-03   -0.17886E-03   529   0.521E-02    0.111E-01
RMM:   7    -0.762817777749E+02    0.16258E-03   -0.51899E-04   528   0.305E-02    0.584E-02
RMM:   8    -0.762818682366E+02   -0.90462E-04   -0.15016E-04   528   0.161E-02    0.602E-02
RMM:   9    -0.762820899257E+02   -0.22169E-03   -0.30823E-05   424   0.608E-03    0.193E-02
RMM:  10    -0.762823710244E+02   -0.28110E-03   -0.36778E-05   363   0.485E-03    0.519E-03
RMM:  11    -0.762826322408E+02   -0.26122E-03   -0.52687E-05   358   0.412E-03    0.309E-03
RMM:  12    -0.762827857466E+02   -0.15351E-03   -0.44733E-05   350   0.336E-03    0.443E-03
RMM:  13    -0.762828359067E+02   -0.50160E-04   -0.18801E-05   342   0.197E-03    0.117E-03
RMM:  14    -0.762828510991E+02   -0.15192E-04   -0.32380E-06   279   0.113E-03    0.106E-03
RMM:  15    -0.762828570845E+02   -0.59854E-05   -0.93727E-07   269   0.830E-04    0.333E-04
RMM:  16    -0.762828587678E+02   -0.16833E-05   -0.34694E-07   170   0.535E-04    0.251E-04
RMM:  17    -0.762828592253E+02   -0.45750E-06   -0.22605E-07   174   0.499E-04
   3 F= -.76282859E+02 E0= -.76093350E+02  d E =-.896515E+01
 curvature:  -0.43 expect dE=-0.474E+01 dE for cont linesearch -0.124E+01
 ZBRENT: interpolating
 opt :   0.7581  next Energy=   -77.380100 (dE=-0.101E+02)
 bond charge predicted
       N       E                     dE             d eps       ncg     rms          rms(c)
DAV:   1    -0.782113648954E+02   -0.19285E+01   -0.98403E+01   528   0.120E+01    0.158E+00
RMM:   2    -0.787904311862E+02   -0.57907E+00   -0.11204E+00   528   0.175E+00    0.118E+01
RMM:   3    -0.782597347533E+02    0.53070E+00   -0.15217E-01   529   0.350E-01    0.139E+00
RMM:   4    -0.783148545587E+02   -0.55120E-01   -0.21850E-02   528   0.210E-01    0.106E+00
RMM:   5    -0.783106389255E+02    0.42156E-02   -0.87240E-03   528   0.131E-01    0.184E-01
RMM:   6    -0.783103994638E+02    0.23946E-03   -0.87620E-04   529   0.384E-02    0.489E-02
RMM:   7    -0.783103272357E+02    0.72228E-04   -0.23495E-04   528   0.221E-02    0.383E-02
RMM:   8    -0.783103856703E+02   -0.58435E-04   -0.59091E-05   521   0.104E-02    0.338E-02
RMM:   9    -0.783105050535E+02   -0.11938E-03   -0.12279E-05   352   0.382E-03    0.152E-02
RMM:  10    -0.783106873148E+02   -0.18226E-03   -0.27707E-05   354   0.422E-03    0.484E-03
RMM:  11    -0.783108337423E+02   -0.14643E-03   -0.32054E-05   345   0.352E-03    0.244E-03
RMM:  12    -0.783108981559E+02   -0.64414E-04   -0.23280E-05   342   0.251E-03    0.255E-03
RMM:  13    -0.783109225608E+02   -0.24405E-04   -0.78183E-06   339   0.167E-03    0.154E-03
RMM:  14    -0.783109284512E+02   -0.58904E-05   -0.16422E-06   260   0.920E-04    0.736E-04
RMM:  15    -0.783109309412E+02   -0.24900E-05   -0.35130E-07   195   0.630E-04    0.799E-04
RMM:  16    -0.783109320482E+02   -0.11070E-05   -0.30466E-07   194   0.589E-04    0.163E-04
RMM:  17    -0.783109321962E+02   -0.14807E-06   -0.11311E-07   148   0.431E-04
   4 F= -.78310932E+02 E0= -.78131241E+02  d E =-.109932E+02
 curvature:  -0.38 expect dE=-0.279E+01 dE for cont linesearch -0.796E+00
 ZBRENT: bisectioning
 opt :   0.3790  next Energy=   -83.052247 (dE=-0.157E+02)
 bond charge predicted
       N       E                     dE             d eps       ncg     rms          rms(c)
DAV:   1    -0.798073523859E+02   -0.14964E+01   -0.14592E+03   528   0.496E+01    0.713E+00
RMM:   2    -0.850634358126E+02   -0.52561E+01   -0.52737E+01   528   0.110E+01    0.821E+00
RMM:   3    -0.834840955364E+02    0.15793E+01   -0.15368E+00   530   0.160E+00    0.387E+00
RMM:   4    -0.835488757748E+02   -0.64780E-01   -0.63464E-01   528   0.107E+00    0.594E+00
RMM:   5    -0.833468673838E+02    0.20201E+00   -0.19408E-01   529   0.418E-01    0.230E+00
RMM:   6    -0.833234244486E+02    0.23443E-01   -0.13844E-01   528   0.525E-01    0.901E-01
RMM:   7    -0.833132616540E+02    0.10163E-01   -0.25466E-02   528   0.177E-01    0.375E-01
RMM:   8    -0.833112869969E+02    0.19747E-02   -0.25242E-03   528   0.679E-02    0.157E-01
RMM:   9    -0.833103584148E+02    0.92858E-03   -0.15767E-03   528   0.591E-02    0.989E-02
RMM:  10    -0.833107931288E+02   -0.43471E-03   -0.42930E-04   529   0.278E-02    0.262E-02
RMM:  11    -0.833124160982E+02   -0.16230E-02   -0.36639E-04   528   0.223E-02    0.742E-02
RMM:  12    -0.833135031038E+02   -0.10870E-02   -0.20516E-04   527   0.146E-02    0.140E-02
RMM:  13    -0.833146441393E+02   -0.11410E-02   -0.31915E-04   523   0.155E-02    0.809E-02
RMM:  14    -0.833150993432E+02   -0.45520E-03   -0.13202E-04   476   0.812E-03    0.224E-02
RMM:  15    -0.833153084634E+02   -0.20912E-03   -0.41570E-05   406   0.442E-03    0.396E-03
RMM:  16    -0.833154111666E+02   -0.10270E-03   -0.97815E-06   343   0.261E-03    0.260E-03
RMM:  17    -0.833154464729E+02   -0.35306E-04   -0.51825E-06   338   0.184E-03    0.195E-03
RMM:  18    -0.833154573484E+02   -0.10876E-04   -0.23580E-06   290   0.116E-03    0.368E-03
RMM:  19    -0.833154603482E+02   -0.29998E-05   -0.89837E-07   224   0.752E-04    0.996E-04
RMM:  20    -0.833154611168E+02   -0.76865E-06   -0.32493E-07   182   0.556E-04
   5 F= -.83315461E+02 E0= -.83179828E+02  d E =-.159978E+02
 curvature:  -2.26 expect dE=-0.337E+01 dE for cont linesearch -0.440E+00
 ZBRENT: interpolating
 opt :   0.2285  next Energy=   -83.783065 (dE=-0.165E+02)
 bond charge predicted
       N       E                     dE             d eps       ncg     rms          rms(c)
DAV:   1    -0.826616419407E+02    0.65382E+00   -0.22715E+02   528   0.240E+01    0.348E+00
RMM:   2    -0.836554057247E+02   -0.99376E+00   -0.76851E+00   528   0.403E+00    0.574E+00
RMM:   3    -0.829832691925E+02    0.67214E+00   -0.43189E-01   528   0.817E-01    0.205E+00
RMM:   4    -0.829534973451E+02    0.29772E-01   -0.24474E-01   528   0.709E-01    0.102E+00
RMM:   5    -0.829460855247E+02    0.74118E-02   -0.42257E-02   528   0.250E-01    0.104E+00
RMM:   6    -0.829282393911E+02    0.17846E-01   -0.25984E-02   528   0.193E-01    0.104E-01
RMM:   7    -0.829278295811E+02    0.40981E-03   -0.13154E-03   529   0.485E-02    0.837E-02
RMM:   8    -0.829278445088E+02   -0.14928E-04   -0.59624E-04   529   0.373E-02    0.583E-02
RMM:   9    -0.829283402999E+02   -0.49579E-03   -0.13044E-04   528   0.133E-02    0.182E-02
RMM:  10    -0.829299033757E+02   -0.15631E-02   -0.34493E-04   528   0.222E-02    0.384E-02
RMM:  11    -0.829306221692E+02   -0.71879E-03   -0.14437E-04   513   0.114E-02    0.725E-03
RMM:  12    -0.829312874570E+02   -0.66529E-03   -0.17258E-04   505   0.105E-02    0.107E-02
RMM:  13    -0.829314744182E+02   -0.18696E-03   -0.46897E-05   403   0.446E-03    0.413E-03
RMM:  14    -0.829315608133E+02   -0.86395E-04   -0.17168E-05   365   0.336E-03    0.663E-03
RMM:  15    -0.829315815653E+02   -0.20752E-04   -0.54478E-06   336   0.185E-03    0.116E-03
RMM:  16    -0.829315870121E+02   -0.54468E-05   -0.17692E-06   284   0.109E-03    0.560E-04
RMM:  17    -0.829315887519E+02   -0.17398E-05   -0.62390E-07   222   0.707E-04    0.376E-04
RMM:  18    -0.829315890984E+02   -0.34644E-06   -0.39207E-07   233   0.628E-04
   6 F= -.82931589E+02 E0= -.82800189E+02  d E =-.156139E+02
 curvature:  -2.40 expect dE=-0.507E+01 dE for cont linesearch -0.310E+01
 ZBRENT: interpolating
 opt :   0.3369  next Energy=   -83.435150 (dE=-0.161E+02)
 bond charge predicted
       N       E                     dE             d eps       ncg     rms          rms(c)
DAV:   1    -0.833485643653E+02   -0.41698E+00   -0.11661E+02   528   0.165E+01    0.175E+00
RMM:   2    -0.836058171981E+02   -0.25725E+00   -0.24030E+00   528   0.281E+00    0.399E+00
RMM:   3    -0.834963593109E+02    0.10946E+00   -0.16506E-01   529   0.512E-01    0.719E-01
RMM:   4    -0.834826499776E+02    0.13709E-01   -0.24176E-02   529   0.261E-01    0.485E-01
RMM:   5    -0.834796447636E+02    0.30052E-02   -0.20920E-02   529   0.207E-01    0.233E-01
RMM:   6    -0.834800230853E+02   -0.37832E-03   -0.15644E-03   528   0.612E-02    0.702E-02
RMM:   7    -0.834812905635E+02   -0.12675E-02   -0.77693E-04   529   0.386E-02    0.752E-02
RMM:   8    -0.834818704486E+02   -0.57989E-03   -0.20925E-04   529   0.194E-02    0.203E-02
RMM:   9    -0.834824164177E+02   -0.54597E-03   -0.16290E-04   524   0.141E-02    0.852E-03
RMM:  10    -0.834829273329E+02   -0.51092E-03   -0.22162E-04   524   0.148E-02    0.482E-03
RMM:  11    -0.834831409892E+02   -0.21366E-03   -0.10239E-04   471   0.813E-03    0.332E-03
RMM:  12    -0.834832003410E+02   -0.59352E-04   -0.27068E-05   380   0.374E-03    0.185E-03
RMM:  13    -0.834832323690E+02   -0.32028E-04   -0.15293E-05   350   0.268E-03    0.170E-03
RMM:  14    -0.834832405014E+02   -0.81324E-05   -0.35138E-06   318   0.131E-03    0.751E-04
RMM:  15    -0.834832427826E+02   -0.22812E-05   -0.13604E-06   255   0.897E-04    0.353E-04
RMM:  16    -0.834832433830E+02   -0.60038E-06   -0.45507E-07   212   0.629E-04
   7 F= -.83483243E+02 E0= -.83350395E+02  d E =-.161655E+02
 curvature:  -0.09 expect dE=-0.110E+00 dE for cont linesearch -0.247E-02
 ZBRENT: interpolating
 opt :   0.3153  next Energy=   -83.508774 (dE=-0.162E+02)
 bond charge predicted
       N       E                     dE             d eps       ncg     rms          rms(c)
DAV:   1    -0.834992259126E+02   -0.15983E-01   -0.45954E+00   576   0.339E+00    0.383E-01
RMM:   2    -0.835112992564E+02   -0.12073E-01   -0.97045E-02   528   0.519E-01    0.732E-01
RMM:   3    -0.835047498521E+02    0.65494E-02   -0.60040E-03   528   0.954E-02    0.128E-01
RMM:   4    -0.835043602759E+02    0.38958E-03   -0.97639E-04   529   0.567E-02    0.111E-01
RMM:   5    -0.835040941422E+02    0.26613E-03   -0.99986E-04   528   0.414E-02    0.232E-02
RMM:   6    -0.835040928795E+02    0.12628E-05   -0.34147E-05   498   0.914E-03    0.191E-02
RMM:   7    -0.835041275875E+02   -0.34708E-04   -0.27819E-05   508   0.797E-03    0.708E-03
RMM:   8    -0.835041546788E+02   -0.27091E-04   -0.41146E-06   338   0.267E-03    0.250E-03
RMM:   9    -0.835042081497E+02   -0.53471E-04   -0.10541E-05   373   0.341E-03    0.195E-03
RMM:  10    -0.835042352793E+02   -0.27130E-04   -0.65929E-06   341   0.223E-03    0.174E-03
RMM:  11    -0.835042500711E+02   -0.14792E-04   -0.56651E-06   339   0.189E-03    0.793E-04
RMM:  12    -0.835042524690E+02   -0.23979E-05   -0.12814E-06   270   0.907E-04    0.830E-04
RMM:  13    -0.835042533459E+02   -0.87689E-06   -0.38583E-07   207   0.625E-04
   8 F= -.83504253E+02 E0= -.83372305E+02  d E =-.161865E+02
 curvature:  -0.96 expect dE=-0.104E+01 dE for cont linesearch -0.264E-03
 trial: gam= 0.00528 g(F)=  0.109E+01 g(S)=  0.000E+00 ort = 0.214E+00 (trialstep = 0.863E+00)
 search vector abs. value=  0.109E+01
 bond charge predicted
       N       E                     dE             d eps       ncg     rms          rms(c)
DAV:   1    -0.843568033900E+02   -0.85255E+00   -0.58135E+01   528   0.143E+01    0.613E-01
RMM:   2    -0.844019211084E+02   -0.45118E-01   -0.40822E-01   535   0.129E+00    0.854E-01
RMM:   3    -0.843912955479E+02    0.10626E-01   -0.20684E-02   532   0.216E-01    0.309E-01
RMM:   4    -0.843891147027E+02    0.21808E-02   -0.22515E-03   529   0.784E-02    0.168E-01
RMM:   5    -0.843880387382E+02    0.10760E-02   -0.34899E-03   528   0.102E-01    0.525E-02
RMM:   6    -0.843879745314E+02    0.64207E-04   -0.14575E-04   528   0.228E-02    0.196E-02
RMM:   7    -0.843879647312E+02    0.98002E-05   -0.37546E-05   528   0.114E-02    0.718E-03
RMM:   8    -0.843879728304E+02   -0.80991E-05   -0.52942E-06   371   0.357E-03    0.329E-03
RMM:   9    -0.843879856497E+02   -0.12819E-04   -0.33309E-06   335   0.254E-03    0.120E-03
RMM:  10    -0.843879938631E+02   -0.82134E-05   -0.22000E-06   328   0.175E-03    0.924E-04
RMM:  11    -0.843880014516E+02   -0.75885E-05   -0.29979E-06   333   0.156E-03    0.666E-04
RMM:  12    -0.843880039792E+02   -0.25277E-05   -0.20267E-06   314   0.114E-03    0.409E-04
RMM:  13    -0.843880042093E+02   -0.23008E-06   -0.44929E-07   191   0.568E-04
   9 F= -.84388004E+02 E0= -.84255031E+02  d E =-.883751E+00
 ZBRENT: can't locate minimum, use default step
 trial-energy change:   -0.883751  1 .order   -0.885127   -0.939872   -0.830381
 step:   3.4523(harm=  7.4085)  dis= 0.09485  next Energy=   -87.538179 (dE=-0.403E+01)
 bond charge predicted
       N       E                     dE             d eps       ncg     rms          rms(c)
DAV:   1    -0.861449816937E+02   -0.17570E+01   -0.52627E+02   528   0.432E+01    0.203E+00
RMM:   2    -0.866169003430E+02   -0.47192E+00   -0.41185E+00   535   0.410E+00    0.288E+00
RMM:   3    -0.864653128781E+02    0.15159E+00   -0.19715E-01   532   0.654E-01    0.748E-01
RMM:   4    -0.864540675458E+02    0.11245E-01   -0.18252E-02   529   0.220E-01    0.526E-01
RMM:   5    -0.864466394256E+02    0.74281E-02   -0.29254E-02   528   0.290E-01    0.264E-01
RMM:   6    -0.864457391460E+02    0.90028E-03   -0.19022E-03   528   0.742E-02    0.947E-02
RMM:   7    -0.864456638088E+02    0.75337E-04   -0.43034E-04   529   0.343E-02    0.794E-02
RMM:   8    -0.864456856258E+02   -0.21817E-04   -0.12905E-04   528   0.146E-02    0.242E-02
RMM:   9    -0.864457423616E+02   -0.56736E-04   -0.16318E-05   458   0.612E-03    0.644E-03
RMM:  10    -0.864458352838E+02   -0.92922E-04   -0.20983E-05   416   0.513E-03    0.273E-03
RMM:  11    -0.864459088152E+02   -0.73531E-04   -0.22004E-05   380   0.389E-03    0.373E-03
RMM:  12    -0.864459473791E+02   -0.38564E-04   -0.22173E-05   383   0.346E-03    0.106E-03
RMM:  13    -0.864459539397E+02   -0.65606E-05   -0.65566E-06   335   0.167E-03    0.615E-04
RMM:  14    -0.864459546164E+02   -0.67669E-06   -0.10713E-06   284   0.878E-04
  10 F= -.86445955E+02 E0= -.86309339E+02  d E =-.294170E+01
 curvature:  -2.36 expect dE=-0.108E+01 dE for cont linesearch -0.894E+00
 ZBRENT: increasing intervall
 opt :   8.6306  next Energy=   -88.129426 (dE=-0.463E+01)
 bond charge predicted
       N       E                     dE             d eps       ncg     rms          rms(c)
DAV:   1    -0.870838229931E+02   -0.63787E+00   -0.21458E+03   528   0.895E+01    0.483E+00
RMM:   2    -0.895823270086E+02   -0.24985E+01   -0.22026E+01   529   0.957E+00    0.634E+00
RMM:   3    -0.886591990311E+02    0.92313E+00   -0.83215E-01   529   0.135E+00    0.242E+00
RMM:   4    -0.885869634049E+02    0.72236E-01   -0.20429E-01   533   0.587E-01    0.125E+00
RMM:   5    -0.886859235341E+02   -0.98960E-01   -0.19369E-01   529   0.516E-01    0.272E+00
RMM:   6    -0.885606745483E+02    0.12525E+00   -0.14883E-01   529   0.455E-01    0.298E-01
RMM:   7    -0.885610542864E+02   -0.37974E-03   -0.42637E-03   529   0.105E-01    0.241E-01
RMM:   8    -0.885601172535E+02    0.93703E-03   -0.94393E-04   531   0.330E-02    0.524E-02
RMM:   9    -0.885603148220E+02   -0.19757E-03   -0.35351E-04   528   0.292E-02    0.847E-02
RMM:  10    -0.885604768349E+02   -0.16201E-03   -0.11884E-04   528   0.137E-02    0.213E-02
RMM:  11    -0.885607293394E+02   -0.25250E-03   -0.57005E-05   499   0.771E-03    0.345E-02
RMM:  12    -0.885609894112E+02   -0.26007E-03   -0.97595E-05   513   0.893E-03    0.310E-02
RMM:  13    -0.885610692332E+02   -0.79822E-04   -0.21665E-05   373   0.402E-03    0.194E-02
RMM:  14    -0.885611562173E+02   -0.86984E-04   -0.50414E-05   455   0.536E-03    0.124E-02
RMM:  15    -0.885611656959E+02   -0.94786E-05   -0.60546E-06   338   0.196E-03    0.198E-03
RMM:  16    -0.885611736464E+02   -0.79505E-05   -0.23927E-06   329   0.121E-03    0.600E-04
RMM:  17    -0.885611759584E+02   -0.23120E-05   -0.68834E-07   195   0.666E-04    0.355E-04
RMM:  18    -0.885611769244E+02   -0.96596E-06   -0.44762E-07   245   0.694E-04
  11 F= -.88561177E+02 E0= -.88415312E+02  d E =-.505692E+01
 curvature:  -4.45 expect dE=-0.120E+01 dE for cont linesearch -0.181E+00
 ZBRENT: extrapolating
 opt :  11.1518  next Energy=   -88.826850 (dE=-0.532E+01)
 bond charge predicted
       N       E                     dE             d eps       ncg     rms          rms(c)
DAV:   1    -0.886136691969E+02   -0.52493E-01   -0.49890E+02   528   0.421E+01    0.210E+00
RMM:   2    -0.891427425405E+02   -0.52907E+00   -0.41383E+00   535   0.398E+00    0.343E+00
RMM:   3    -0.889235281170E+02    0.21921E+00   -0.23160E-01   530   0.673E-01    0.742E-01
RMM:   4    -0.889136945345E+02    0.98336E-02   -0.19080E-02   529   0.215E-01    0.490E-01
RMM:   5    -0.889067219385E+02    0.69726E-02   -0.24005E-02   528   0.272E-01    0.180E-01
RMM:   6    -0.889062510032E+02    0.47094E-03   -0.19226E-03   528   0.778E-02    0.909E-02
RMM:   7    -0.889062810101E+02   -0.30007E-04   -0.56457E-04   529   0.341E-02    0.131E-01
RMM:   8    -0.889061830816E+02    0.97929E-04   -0.17380E-04   528   0.153E-02    0.277E-02
RMM:   9    -0.889062313475E+02   -0.48266E-04   -0.23822E-05   528   0.825E-03    0.120E-02
RMM:  10    -0.889063106356E+02   -0.79288E-04   -0.18226E-05   427   0.540E-03    0.256E-03
RMM:  11    -0.889063711477E+02   -0.60512E-04   -0.12889E-05   343   0.315E-03    0.346E-03
RMM:  12    -0.889064217912E+02   -0.50644E-04   -0.19295E-05   362   0.327E-03    0.106E-03
RMM:  13    -0.889064377087E+02   -0.15918E-04   -0.85413E-06   338   0.192E-03    0.673E-04
RMM:  14    -0.889064411484E+02   -0.34397E-05   -0.18321E-06   309   0.103E-03    0.407E-04
RMM:  15    -0.889064423874E+02   -0.12390E-05   -0.46867E-07   228   0.669E-04    0.260E-04
RMM:  16    -0.889064429016E+02   -0.51424E-06   -0.20260E-07   167   0.523E-04
  12 F= -.88906443E+02 E0= -.88755535E+02  d E =-.540219E+01
 curvature:  -6.55 expect dE=-0.179E+01 dE for cont linesearch -0.290E-01
 ZBRENT: extrapolating
 opt :  12.5450  next Energy=   -88.949034 (dE=-0.544E+01)
 bond charge predicted
       N       E                     dE             d eps       ncg     rms          rms(c)
DAV:   1    -0.888707153436E+02    0.35727E-01   -0.15169E+02   576   0.231E+01    0.111E+00
RMM:   2    -0.890292456412E+02   -0.15853E+00   -0.11774E+00   535   0.209E+00    0.207E+00
RMM:   3    -0.889633995588E+02    0.65846E-01   -0.74208E-02   530   0.378E-01    0.420E-01
RMM:   4    -0.889594522159E+02    0.39473E-02   -0.53080E-03   529   0.118E-01    0.277E-01
RMM:   5    -0.889570354859E+02    0.24167E-02   -0.76445E-03   528   0.152E-01    0.185E-01
RMM:   6    -0.889566117192E+02    0.42377E-03   -0.71499E-04   528   0.459E-02    0.413E-02
RMM:   7    -0.889565885032E+02    0.23216E-04   -0.10237E-04   529   0.182E-02    0.301E-02
RMM:   8    -0.889566049781E+02   -0.16475E-04   -0.22554E-05   524   0.665E-03    0.106E-02
RMM:   9    -0.889566240701E+02   -0.19092E-04   -0.48811E-06   340   0.343E-03    0.390E-03
RMM:  10    -0.889566443449E+02   -0.20275E-04   -0.43807E-06   335   0.239E-03    0.225E-03
RMM:  11    -0.889566618987E+02   -0.17554E-04   -0.41081E-06   334   0.164E-03    0.950E-04
RMM:  12    -0.889566745160E+02   -0.12617E-04   -0.53479E-06   334   0.177E-03    0.696E-04
RMM:  13    -0.889566778399E+02   -0.33239E-05   -0.21558E-06   307   0.107E-03    0.432E-04
RMM:  14    -0.889566783239E+02   -0.48405E-06   -0.37354E-07   210   0.618E-04
  13 F= -.88956678E+02 E0= -.88802920E+02  d E =-.545242E+01
 curvature:  -9.63 expect dE=-0.273E+01 dE for cont linesearch -0.179E-03
 trial: gam= 0.27000 g(F)=  0.284E+00 g(S)=  0.000E+00 ort = 0.451E-02 (trialstep = 0.320E+01)
 search vector abs. value=  0.366E+00
 bond charge predicted
       N       E                     dE             d eps       ncg     rms          rms(c)
DAV:   1    -0.893491962766E+02   -0.39252E+00   -0.26395E+02   528   0.300E+01    0.137E+00
RMM:   2    -0.895756638348E+02   -0.22647E+00   -0.25106E+00   531   0.327E+00    0.604E-01
RMM:   3    -0.895624588055E+02    0.13205E-01   -0.70716E-02   533   0.463E-01    0.453E-01
RMM:   4    -0.895633971426E+02   -0.93834E-03   -0.74959E-03   529   0.136E-01    0.899E-01
RMM:   5    -0.895565093647E+02    0.68878E-02   -0.64528E-03   529   0.109E-01    0.185E-01
RMM:   6    -0.895559552539E+02    0.55411E-03   -0.32380E-03   529   0.104E-01    0.477E-02
RMM:   7    -0.895559460218E+02    0.92321E-05   -0.26146E-04   529   0.306E-02    0.342E-02
RMM:   8    -0.895560881957E+02   -0.14217E-03   -0.80055E-05   529   0.135E-02    0.191E-02
RMM:   9    -0.895562698992E+02   -0.18170E-03   -0.39502E-05   506   0.771E-03    0.488E-03
RMM:  10    -0.895564086777E+02   -0.13878E-03   -0.29151E-05   397   0.479E-03    0.330E-03
RMM:  11    -0.895565501846E+02   -0.14151E-03   -0.50628E-05   446   0.572E-03    0.161E-03
RMM:  12    -0.895565976358E+02   -0.47451E-04   -0.24016E-05   362   0.347E-03    0.100E-03
RMM:  13    -0.895566124206E+02   -0.14785E-04   -0.74247E-06   336   0.168E-03    0.561E-04
RMM:  14    -0.895566172903E+02   -0.48697E-05   -0.20823E-06   275   0.983E-04    0.481E-04
RMM:  15    -0.895566191322E+02   -0.18420E-05   -0.99259E-07   273   0.825E-04    0.205E-04
RMM:  16    -0.895566194709E+02   -0.33870E-06   -0.32778E-07   182   0.520E-04
  14 F= -.89556619E+02 E0= -.89400415E+02  d E =-.599941E+00
 trial-energy change:   -0.599941  1 .order   -0.619878   -0.911349   -0.328406
 step:   6.1879(harm=  5.0019)  dis= 0.16273  next Energy=   -89.693748 (dE=-0.737E+00)
 bond charge predicted
       N       E                     dE             d eps       ncg     rms          rms(c)
DAV:   1    -0.895016762814E+02    0.54943E-01   -0.23002E+02   528   0.279E+01    0.134E+00
RMM:   2    -0.897171903628E+02   -0.21551E+00   -0.21556E+00   531   0.295E+00    0.154E+00
RMM:   3    -0.897233628643E+02   -0.61725E-02   -0.10188E-01   531   0.475E-01    0.266E+00
RMM:   4    -0.896763862254E+02    0.46977E-01   -0.20578E-02   529   0.202E-01    0.405E-01
RMM:   5    -0.896794062950E+02   -0.30201E-02   -0.82308E-03   529   0.156E-01    0.475E-01
RMM:   6    -0.896774118224E+02    0.19945E-02   -0.45203E-03   529   0.113E-01    0.108E-01
RMM:   7    -0.896776079884E+02   -0.19617E-03   -0.45833E-04   529   0.355E-02    0.378E-02
RMM:   8    -0.896777475389E+02   -0.13955E-03   -0.11953E-04   529   0.171E-02    0.300E-02
RMM:   9    -0.896778710418E+02   -0.12350E-03   -0.33906E-05   517   0.788E-03    0.551E-03
RMM:  10    -0.896779697786E+02   -0.98737E-04   -0.19610E-05   363   0.404E-03    0.300E-03
RMM:  11    -0.896780601602E+02   -0.90382E-04   -0.27244E-05   381   0.413E-03    0.195E-03
RMM:  12    -0.896781049167E+02   -0.44756E-04   -0.22796E-05   360   0.335E-03    0.192E-03
RMM:  13    -0.896781158153E+02   -0.10899E-04   -0.67293E-06   337   0.162E-03    0.508E-04
RMM:  14    -0.896781186846E+02   -0.28693E-05   -0.14885E-06   277   0.920E-04    0.664E-04
RMM:  15    -0.896781199144E+02   -0.12298E-05   -0.64744E-07   224   0.703E-04    0.361E-04
RMM:  16    -0.896781202372E+02   -0.32275E-06   -0.25673E-07   196   0.552E-04
  15 F= -.89678120E+02 E0= -.89517761E+02  d E =-.721442E+00
 curvature:  -1.82 expect dE=-0.155E+00 dE for cont linesearch -0.998E-03
 trial: gam= 0.32193 g(F)=  0.854E-01 g(S)=  0.000E+00 ort =-0.142E-01 (trialstep = 0.380E+01)
 search vector abs. value=  0.114E+00
 bond charge predicted
       N       E                     dE             d eps       ncg     rms          rms(c)
DAV:   1    -0.898096032025E+02   -0.13148E+00   -0.11485E+02   528   0.197E+01    0.104E+00
RMM:   2    -0.899488535266E+02   -0.13925E+00   -0.12198E+00   535   0.204E+00    0.192E+00
RMM:   3    -0.899079276097E+02    0.40926E-01   -0.58271E-02   530   0.335E-01    0.569E-01
RMM:   4    -0.899044477026E+02    0.34799E-02   -0.69613E-03   529   0.144E-01    0.557E-01
RMM:   5    -0.899005382210E+02    0.39095E-02   -0.10125E-02   529   0.146E-01    0.142E-01
RMM:   6    -0.898999255288E+02    0.61269E-03   -0.94778E-04   529   0.575E-02    0.526E-02
RMM:   7    -0.898998570969E+02    0.68432E-04   -0.85347E-05   529   0.157E-02    0.172E-02
RMM:   8    -0.898999335000E+02   -0.76403E-04   -0.44027E-05   529   0.989E-03    0.147E-02
RMM:   9    -0.899000524015E+02   -0.11890E-03   -0.15731E-05   402   0.526E-03    0.505E-03
RMM:  10    -0.899001893548E+02   -0.13695E-03   -0.22603E-05   388   0.470E-03    0.431E-03
RMM:  11    -0.899002989040E+02   -0.10955E-03   -0.23556E-05   372   0.390E-03    0.152E-03
RMM:  12    -0.899003507918E+02   -0.51888E-04   -0.13974E-05   343   0.266E-03    0.102E-03
RMM:  13    -0.899003702656E+02   -0.19474E-04   -0.47598E-06   331   0.160E-03    0.604E-04
RMM:  14    -0.899003750140E+02   -0.47484E-05   -0.12321E-06   271   0.864E-04    0.401E-04
RMM:  15    -0.899003772545E+02   -0.22405E-05   -0.58242E-07   237   0.722E-04    0.163E-04
RMM:  16    -0.899003776146E+02   -0.36003E-06   -0.13149E-07   155   0.457E-04
  16 F= -.89900378E+02 E0= -.89744976E+02  d E =-.222257E+00
 trial-energy change:   -0.222257  1 .order   -0.217763   -0.306801   -0.128726
 step:   6.0112(harm=  6.5420)  dis= 0.08238  next Energy=   -89.938798 (dE=-0.261E+00)
 bond charge predicted
       N       E                     dE             d eps       ncg     rms          rms(c)
DAV:   1    -0.899071477296E+02   -0.67705E-02   -0.38984E+01   528   0.115E+01    0.626E-01
RMM:   2    -0.899625477667E+02   -0.55400E-01   -0.43043E-01   535   0.119E+00    0.140E+00
RMM:   3    -0.899394453840E+02    0.23102E-01   -0.23118E-02   530   0.207E-01    0.229E-01
RMM:   4    -0.899384509562E+02    0.99443E-03   -0.21527E-03   529   0.874E-02    0.257E-01
RMM:   5    -0.899372391286E+02    0.12118E-02   -0.43192E-03   529   0.968E-02    0.739E-02
RMM:   6    -0.899370667266E+02    0.17240E-03   -0.19990E-04   528   0.278E-02    0.290E-02
RMM:   7    -0.899370484003E+02    0.18326E-04   -0.39466E-05   529   0.107E-02    0.874E-03
RMM:   8    -0.899370872706E+02   -0.38870E-04   -0.11151E-05   414   0.487E-03    0.688E-03
RMM:   9    -0.899371535637E+02   -0.66293E-04   -0.87583E-06   343   0.339E-03    0.295E-03
RMM:  10    -0.899372155613E+02   -0.61998E-04   -0.10868E-05   345   0.300E-03    0.207E-03
RMM:  11    -0.899372566753E+02   -0.41114E-04   -0.10244E-05   341   0.248E-03    0.830E-04
RMM:  12    -0.899372715225E+02   -0.14847E-04   -0.48498E-06   331   0.156E-03    0.587E-04
RMM:  13    -0.899372758352E+02   -0.43128E-05   -0.12405E-06   297   0.988E-04    0.638E-04
RMM:  14    -0.899372772248E+02   -0.13896E-05   -0.51694E-07   219   0.655E-04    0.300E-04
RMM:  15    -0.899372777235E+02   -0.49866E-06   -0.26258E-07   197   0.571E-04
  17 F= -.89937278E+02 E0= -.89784461E+02  d E =-.259157E+00
 curvature:  -4.45 expect dE=-0.578E-01 dE for cont linesearch -0.110E-03
 trial: gam= 0.16828 g(F)=  0.130E-01 g(S)=  0.000E+00 ort =-0.168E-02 (trialstep = 0.424E+01)
 search vector abs. value=  0.157E-01
 bond charge predicted
       N       E                     dE             d eps       ncg     rms          rms(c)
DAV:   1    -0.899701625620E+02   -0.32885E-01   -0.20518E+01   528   0.822E+00    0.201E-01
RMM:   2    -0.899819944025E+02   -0.11832E-01   -0.12214E-01   531   0.731E-01    0.217E-01
RMM:   3    -0.899818920213E+02    0.10238E-03   -0.40458E-03   533   0.108E-01    0.223E-01
RMM:   4    -0.899812290165E+02    0.66300E-03   -0.52906E-04   530   0.333E-02    0.117E-01
RMM:   5    -0.899807782983E+02    0.45072E-03   -0.11095E-03   529   0.550E-02    0.444E-02
RMM:   6    -0.899807430807E+02    0.35218E-04   -0.19027E-04   529   0.253E-02    0.135E-02
RMM:   7    -0.899807340058E+02    0.90750E-05   -0.16337E-05   525   0.666E-03    0.690E-03
RMM:   8    -0.899807352659E+02   -0.12602E-05   -0.74516E-06   449   0.443E-03    0.233E-03
RMM:   9    -0.899807385150E+02   -0.32490E-05   -0.80834E-07   324   0.155E-03    0.115E-03
RMM:  10    -0.899807412544E+02   -0.27394E-05   -0.54190E-07   321   0.103E-03    0.551E-04
RMM:  11    -0.899807441344E+02   -0.28800E-05   -0.69790E-07   285   0.837E-04    0.479E-04
RMM:  12    -0.899807457612E+02   -0.16269E-05   -0.67675E-07   240   0.738E-04    0.222E-04
RMM:  13    -0.899807462010E+02   -0.43975E-06   -0.33340E-07   215   0.599E-04
  18 F= -.89980746E+02 E0= -.89828026E+02  d E =-.434685E-01
 trial-energy change:   -0.043468  1 .order   -0.043529   -0.053874   -0.033185
 step:  11.0407(harm= 11.0407)  dis= 0.05369  next Energy=   -90.007421 (dE=-0.701E-01)
 bond charge predicted
       N       E                     dE             d eps       ncg     rms          rms(c)
DAV:   1    -0.899799285908E+02    0.81717E-03   -0.52847E+01   528   0.132E+01    0.328E-01
RMM:   2    -0.900103291095E+02   -0.30401E-01   -0.31831E-01   531   0.119E+00    0.290E-01
RMM:   3    -0.900103236961E+02    0.54134E-05   -0.10088E-02   533   0.173E-01    0.367E-01
RMM:   4    -0.900087783587E+02    0.15453E-02   -0.13494E-03   530   0.512E-02    0.192E-01
RMM:   5    -0.900076722657E+02    0.11061E-02   -0.22361E-03   529   0.789E-02    0.824E-02
RMM:   6    -0.900075354512E+02    0.13681E-03   -0.73876E-04   529   0.493E-02    0.214E-02
RMM:   7    -0.900075162647E+02    0.19186E-04   -0.40278E-05   529   0.110E-02    0.114E-02
RMM:   8    -0.900075191633E+02   -0.28986E-05   -0.20825E-05   528   0.752E-03    0.384E-03
RMM:   9    -0.900075266151E+02   -0.74518E-05   -0.16388E-06   328   0.198E-03    0.197E-03
RMM:  10    -0.900075336447E+02   -0.70296E-05   -0.13452E-06   326   0.146E-03    0.831E-04
RMM:  11    -0.900075392666E+02   -0.56218E-05   -0.12033E-06   327   0.114E-03    0.778E-04
RMM:  12    -0.900075439908E+02   -0.47242E-05   -0.18074E-06   321   0.117E-03    0.434E-04
RMM:  13    -0.900075452931E+02   -0.13023E-05   -0.80451E-07   272   0.786E-04    0.289E-04
RMM:  14    -0.900075455856E+02   -0.29257E-06   -0.22366E-07   155   0.501E-04
  19 F= -.90007546E+02 E0= -.89854822E+02  d E =-.702679E-01
 curvature:  -6.80 expect dE=-0.662E-01 dE for cont linesearch -0.924E-06
 trial: gam= 0.80817 g(F)=  0.973E-02 g(S)=  0.000E+00 ort = 0.461E-04 (trialstep = 0.438E+01)
 search vector abs. value=  0.200E-01
 bond charge predicted
       N       E                     dE             d eps       ncg     rms          rms(c)
DAV:   1    -0.900193796763E+02   -0.11834E-01   -0.27581E+01   528   0.953E+00    0.371E-01
RMM:   2    -0.900485623523E+02   -0.29183E-01   -0.21269E-01   531   0.899E-01    0.105E+00
RMM:   3    -0.900365286505E+02    0.12034E-01   -0.11654E-02   533   0.155E-01    0.188E-01
RMM:   4    -0.900358157642E+02    0.71289E-03   -0.98776E-04   529   0.584E-02    0.178E-01
RMM:   5    -0.900349972400E+02    0.81852E-03   -0.35345E-03   529   0.950E-02    0.409E-02
RMM:   6    -0.900349650695E+02    0.32170E-04   -0.99769E-05   528   0.216E-02    0.216E-02
RMM:   7    -0.900349623355E+02    0.27341E-05   -0.32936E-05   529   0.929E-03    0.552E-03
RMM:   8    -0.900349747695E+02   -0.12434E-04   -0.35836E-06   339   0.302E-03    0.412E-03
RMM:   9    -0.900349899636E+02   -0.15194E-04   -0.22590E-06   330   0.199E-03    0.138E-03
RMM:  10    -0.900350020742E+02   -0.12111E-04   -0.18544E-06   329   0.147E-03    0.904E-04
RMM:  11    -0.900350124556E+02   -0.10381E-04   -0.26850E-06   327   0.142E-03    0.533E-04
RMM:  12    -0.900350159371E+02   -0.34815E-05   -0.11469E-06   231   0.813E-04    0.330E-04
RMM:  13    -0.900350172914E+02   -0.13543E-05   -0.57211E-07   239   0.702E-04    0.306E-04
RMM:  14    -0.900350175693E+02   -0.27784E-06   -0.14714E-07   156   0.450E-04
  20 F= -.90035018E+02 E0= -.89883766E+02  d E =-.274720E-01
 trial-energy change:   -0.027472  1 .order   -0.027062   -0.042761   -0.011362
 step:   5.8110(harm=  5.9603)  dis= 0.02644  next Energy=   -90.036894 (dE=-0.293E-01)
 bond charge predicted
       N       E                     dE             d eps       ncg     rms          rms(c)
DAV:   1    -0.900352589428E+02   -0.24165E-03   -0.29599E+00   576   0.312E+00    0.121E-01
RMM:   2    -0.900385073022E+02   -0.32484E-02   -0.22750E-02   532   0.292E-01    0.375E-01
RMM:   3    -0.900371521182E+02    0.13552E-02   -0.13056E-03   531   0.522E-02    0.629E-02
RMM:   4    -0.900370214885E+02    0.13063E-03   -0.11677E-04   529   0.201E-02    0.577E-02
RMM:   5    -0.900369298722E+02    0.91616E-04   -0.38580E-04   529   0.316E-02    0.835E-03
RMM:   6    -0.900369277390E+02    0.21332E-05   -0.10454E-05   452   0.690E-03    0.695E-03
RMM:   7    -0.900369281915E+02   -0.45246E-06   -0.37679E-06   358   0.332E-03
  21 F= -.90036928E+02 E0= -.89886093E+02  d E =-.293826E-01
 curvature:  -6.06 expect dE=-0.419E-01 dE for cont linesearch -0.311E-06
 trial: gam= 0.72994 g(F)=  0.693E-02 g(S)=  0.000E+00 ort = 0.321E-04 (trialstep = 0.466E+01)
 search vector abs. value=  0.176E-01
 bond charge predicted
       N       E                     dE             d eps       ncg     rms          rms(c)
DAV:   1    -0.900483239247E+02   -0.11396E-01   -0.27627E+01   528   0.977E+00    0.380E-01
RMM:   2    -0.900675520239E+02   -0.19228E-01   -0.18422E-01   535   0.832E-01    0.453E-01
RMM:   3    -0.900661593932E+02    0.13926E-02   -0.84541E-03   531   0.137E-01    0.429E-01
RMM:   4    -0.900640658504E+02    0.20935E-02   -0.11823E-03   529   0.540E-02    0.112E-01
RMM:   5    -0.900636502202E+02    0.41563E-03   -0.17082E-03   529   0.710E-02    0.530E-02
RMM:   6    -0.900636206662E+02    0.29554E-04   -0.11415E-04   529   0.180E-02    0.142E-02
RMM:   7    -0.900636228776E+02   -0.22113E-05   -0.21449E-05   529   0.732E-03    0.696E-03
RMM:   8    -0.900636324548E+02   -0.95772E-05   -0.55156E-06   390   0.383E-03    0.223E-03
RMM:   9    -0.900636407590E+02   -0.83043E-05   -0.15041E-06   326   0.182E-03    0.113E-03
RMM:  10    -0.900636467991E+02   -0.60401E-05   -0.11994E-06   324   0.129E-03    0.760E-04
RMM:  11    -0.900636525415E+02   -0.57424E-05   -0.20226E-06   322   0.123E-03    0.515E-04
RMM:  12    -0.900636544610E+02   -0.19195E-05   -0.11530E-06   256   0.849E-04    0.318E-04
RMM:  13    -0.900636548466E+02   -0.38565E-06   -0.46283E-07   199   0.600E-04
  22 F= -.90063655E+02 E0= -.89912333E+02  d E =-.267267E-01
 trial-energy change:   -0.026727  1 .order   -0.026598   -0.032410   -0.020786
 step:  11.8016(harm= 13.0025)  dis= 0.04041  next Energy=   -90.080025 (dE=-0.431E-01)
 bond charge predicted
       N       E                     dE             d eps       ncg     rms          rms(c)
DAV:   1    -0.900455747566E+02    0.18080E-01   -0.64789E+01   528   0.150E+01    0.596E-01
RMM:   2    -0.900927296630E+02   -0.47155E-01   -0.44100E-01   535   0.129E+00    0.804E-01
RMM:   3    -0.900872925552E+02    0.54371E-02   -0.20999E-02   531   0.214E-01    0.649E-01
RMM:   4    -0.900826768684E+02    0.46157E-02   -0.27328E-03   529   0.842E-02    0.169E-01
RMM:   5    -0.900818084370E+02    0.86843E-03   -0.37300E-03   529   0.106E-01    0.120E-01
RMM:   6    -0.900816788035E+02    0.12963E-03   -0.31939E-04   529   0.296E-02    0.230E-02
RMM:   7    -0.900816974936E+02   -0.18690E-04   -0.49198E-05   529   0.111E-02    0.125E-02
RMM:   8    -0.900817218353E+02   -0.24342E-04   -0.15683E-05   526   0.638E-03    0.331E-03
RMM:   9    -0.900817445863E+02   -0.22751E-04   -0.41184E-06   335   0.241E-03    0.191E-03
RMM:  10    -0.900817629607E+02   -0.18374E-04   -0.43661E-06   335   0.202E-03    0.118E-03
RMM:  11    -0.900817760470E+02   -0.13086E-04   -0.54156E-06   335   0.183E-03    0.787E-04
RMM:  12    -0.900817796651E+02   -0.36180E-05   -0.24262E-06   321   0.116E-03    0.432E-04
RMM:  13    -0.900817805264E+02   -0.86129E-06   -0.99371E-07   242   0.779E-04
  23 F= -.90081781E+02 E0= -.89929569E+02  d E =-.448523E-01
 curvature: -16.17 expect dE=-0.707E-01 dE for cont linesearch -0.272E-03
 trial: gam= 0.53870 g(F)=  0.437E-02 g(S)=  0.000E+00 ort = 0.545E-03 (trialstep = 0.609E+01)
 search vector abs. value=  0.101E-01
 bond charge predicted
       N       E                     dE             d eps       ncg     rms          rms(c)
DAV:   1    -0.900888705067E+02   -0.70908E-02   -0.26720E+01   528   0.944E+00    0.427E-01
RMM:   2    -0.901220092821E+02   -0.33139E-01   -0.18707E-01   529   0.854E-01    0.129E+00
RMM:   3    -0.901030443072E+02    0.18965E-01   -0.15344E-02   531   0.164E-01    0.194E-01
RMM:   4    -0.901022709876E+02    0.77332E-03   -0.11862E-03   532   0.580E-02    0.142E-01
RMM:   5    -0.901015895664E+02    0.68142E-03   -0.27742E-03   529   0.873E-02    0.224E-02
RMM:   6    -0.901015906061E+02   -0.10397E-05   -0.93167E-05   531   0.196E-02    0.195E-02
RMM:   7    -0.901015824006E+02    0.82054E-05   -0.28200E-05   529   0.863E-03    0.530E-03
RMM:   8    -0.901015837348E+02   -0.13342E-05   -0.25307E-06   337   0.266E-03    0.237E-03
RMM:   9    -0.901015853179E+02   -0.15830E-05   -0.69162E-07   322   0.145E-03    0.740E-04
RMM:  10    -0.901015860058E+02   -0.68791E-06   -0.22069E-07   308   0.875E-04
  24 F= -.90101586E+02 E0= -.89949642E+02  d E =-.198055E-01
 trial-energy change:   -0.019805  1 .order   -0.019702   -0.028417   -0.010987
 step:   9.7231(harm=  9.9304)  dis= 0.03302  next Energy=   -90.104884 (dE=-0.231E-01)
 bond charge predicted
       N       E                     dE             d eps       ncg     rms          rms(c)
DAV:   1    -0.901005936718E+02    0.99165E-03   -0.94907E+00   576   0.563E+00    0.254E-01
RMM:   2    -0.901125176779E+02   -0.11924E-01   -0.65459E-02   531   0.501E-01    0.809E-01
RMM:   3    -0.901056223187E+02    0.68954E-02   -0.55479E-03   531   0.987E-02    0.114E-01
RMM:   4    -0.901053061449E+02    0.31617E-03   -0.43908E-04   531   0.350E-02    0.834E-02
RMM:   5    -0.901050664120E+02    0.23973E-03   -0.96040E-04   529   0.515E-02    0.133E-02
RMM:   6    -0.901050691395E+02   -0.27275E-05   -0.35745E-05   531   0.116E-02    0.117E-02
RMM:   7    -0.901050668052E+02    0.23343E-05   -0.96519E-06   491   0.495E-03    0.376E-03
RMM:   8    -0.901050676261E+02   -0.82092E-06   -0.10106E-06   318   0.179E-03
  25 F= -.90105068E+02 E0= -.89953265E+02  d E =-.232871E-01
 curvature: -10.70 expect dE=-0.610E-01 dE for cont linesearch -0.472E-05
 trial: gam= 1.36548 g(F)=  0.570E-02 g(S)=  0.000E+00 ort = 0.667E-04 (trialstep = 0.278E+01)
 search vector abs. value=  0.247E-01
 bond charge predicted
       N       E                     dE             d eps       ncg     rms          rms(c)
DAV:   1    -0.901060020552E+02   -0.93525E-03   -0.12972E+01   528   0.678E+00    0.406E-01
RMM:   2    -0.901201511635E+02   -0.14149E-01   -0.13135E-01   534   0.625E-01    0.473E-01
RMM:   3    -0.901189421874E+02    0.12090E-02   -0.77207E-03   530   0.113E-01    0.502E-01
RMM:   4    -0.901164316610E+02    0.25105E-02   -0.13705E-03   529   0.566E-02    0.890E-02
RMM:   5    -0.901163576991E+02    0.73962E-04   -0.76628E-04   529   0.457E-02    0.471E-02
RMM:   6    -0.901163336662E+02    0.24033E-04   -0.93689E-05   529   0.147E-02    0.110E-02
RMM:   7    -0.901163472868E+02   -0.13621E-04   -0.13229E-05   508   0.562E-03    0.710E-03
RMM:   8    -0.901163633150E+02   -0.16028E-04   -0.41621E-06   343   0.306E-03    0.233E-03
RMM:   9    -0.901163769639E+02   -0.13649E-04   -0.23387E-06   329   0.184E-03    0.121E-03
RMM:  10    -0.901163873259E+02   -0.10362E-04   -0.24751E-06   329   0.151E-03    0.825E-04
RMM:  11    -0.901163942543E+02   -0.69284E-05   -0.32400E-06   327   0.148E-03    0.513E-04
RMM:  12    -0.901163955685E+02   -0.13142E-05   -0.10221E-06   217   0.757E-04    0.329E-04
RMM:  13    -0.901163958312E+02   -0.26266E-06   -0.36202E-07   211   0.617E-04
  26 F= -.90116396E+02 E0= -.89963878E+02  d E =-.113282E-01
 trial-energy change:   -0.011328  1 .order   -0.011260   -0.016136   -0.006384
 step:   4.4910(harm=  4.6069)  dis= 0.03137  next Energy=   -90.118368 (dE=-0.133E-01)
 bond charge predicted
       N       E                     dE             d eps       ncg     rms          rms(c)
DAV:   1    -0.901146655683E+02    0.17300E-02   -0.48737E+00   528   0.416E+00    0.249E-01
RMM:   2    -0.901200111629E+02   -0.53456E-02   -0.49108E-02   534   0.381E-01    0.313E-01
RMM:   3    -0.901195262395E+02    0.48492E-03   -0.30211E-03   530   0.699E-02    0.308E-01
RMM:   4    -0.901185442100E+02    0.98203E-03   -0.51220E-04   529   0.349E-02    0.584E-02
RMM:   5    -0.901185295818E+02    0.14628E-04   -0.30312E-04   529   0.283E-02    0.245E-02
RMM:   6    -0.901185202765E+02    0.93053E-05   -0.32770E-05   528   0.874E-03    0.688E-03
RMM:   7    -0.901185250919E+02   -0.48154E-05   -0.45779E-06   365   0.344E-03    0.372E-03
RMM:   8    -0.901185310733E+02   -0.59814E-05   -0.16027E-06   323   0.205E-03    0.149E-03
RMM:   9    -0.901185354280E+02   -0.43546E-05   -0.63577E-07   320   0.114E-03    0.857E-04
RMM:  10    -0.901185403317E+02   -0.49037E-05   -0.12107E-06   314   0.110E-03    0.492E-04
RMM:  11    -0.901185429407E+02   -0.26090E-05   -0.13033E-06   255   0.926E-04    0.422E-04
RMM:  12    -0.901185433295E+02   -0.38880E-06   -0.37141E-07   182   0.538E-04
  27 F= -.90118543E+02 E0= -.89965563E+02  d E =-.134757E-01
 curvature:  -9.77 expect dE=-0.119E-01 dE for cont linesearch -0.134E-04
 trial: gam= 0.15111 g(F)=  0.121E-02 g(S)=  0.000E+00 ort = 0.184E-03 (trialstep = 0.313E+01)
 search vector abs. value=  0.183E-02
 bond charge predicted
       N       E                     dE             d eps       ncg     rms          rms(c)
DAV:   1    -0.901213655754E+02   -0.28226E-02   -0.12657E+00   576   0.210E+00    0.981E-02
RMM:   2    -0.901227875420E+02   -0.14220E-02   -0.94997E-03   535   0.186E-01    0.257E-01
RMM:   3    -0.901221788240E+02    0.60872E-03   -0.68188E-04   531   0.357E-02    0.543E-02
RMM:   4    -0.901221161559E+02    0.62668E-04   -0.58101E-05   529   0.135E-02    0.239E-02
RMM:   5    -0.901220868909E+02    0.29265E-04   -0.87244E-05   529   0.159E-02    0.568E-03
RMM:   6    -0.901220857033E+02    0.11876E-05   -0.25804E-06   337   0.296E-03    0.281E-03
RMM:   7    -0.901220853085E+02    0.39484E-06   -0.79222E-07   301   0.169E-03
  28 F= -.90122085E+02 E0= -.89969167E+02  d E =-.354198E-02
 ZBRENT: can't locate minimum, use default step
 trial-energy change:   -0.003542  1 .order   -0.003562   -0.003879   -0.003245
 step:  12.5027(harm= 19.1136)  dis= 0.01513  next Energy=   -90.130404 (dE=-0.119E-01)
 bond charge predicted
       N       E                     dE             d eps       ncg     rms          rms(c)
DAV:   1    -0.901222584613E+02   -0.17276E-03   -0.11391E+01   528   0.629E+00    0.300E-01
RMM:   2    -0.901353237776E+02   -0.13065E-01   -0.87132E-02   535   0.562E-01    0.758E-01
RMM:   3    -0.901294968234E+02    0.58270E-02   -0.62318E-03   531   0.107E-01    0.152E-01
RMM:   4    -0.901290531184E+02    0.44370E-03   -0.49246E-04   529   0.385E-02    0.730E-02
RMM:   5    -0.901288405125E+02    0.21261E-03   -0.76605E-04   529   0.470E-02    0.283E-02
RMM:   6    -0.901288299586E+02    0.10554E-04   -0.27927E-05   529   0.934E-03    0.850E-03
RMM:   7    -0.901288282998E+02    0.16589E-05   -0.63654E-06   428   0.412E-03    0.356E-03
RMM:   8    -0.901288294936E+02   -0.11939E-05   -0.18546E-06   326   0.234E-03    0.109E-03
RMM:   9    -0.901288309905E+02   -0.14968E-05   -0.39609E-07   317   0.114E-03    0.645E-04
RMM:  10    -0.901288322378E+02   -0.12473E-05   -0.25295E-07   275   0.726E-04    0.360E-04
RMM:  11    -0.901288336692E+02   -0.14314E-05   -0.41988E-07   213   0.652E-04    0.215E-04
RMM:  12    -0.901288341597E+02   -0.49052E-06   -0.22286E-07   184   0.526E-04
  29 F= -.90128834E+02 E0= -.89976116E+02  d E =-.102908E-01
 curvature: -11.70 expect dE=-0.464E-02 dE for cont linesearch -0.109E-02
 ZBRENT: increasing intervall
 opt :  31.2568  next Energy=   -90.124830 (dE=-0.629E-02)
 bond charge predicted
       N       E                     dE             d eps       ncg     rms          rms(c)
DAV:   1    -0.900983327948E+02    0.30501E-01   -0.45584E+01   528   0.126E+01    0.617E-01
RMM:   2    -0.901530849427E+02   -0.54752E-01   -0.36483E-01   533   0.114E+00    0.147E+00
RMM:   3    -0.901273357695E+02    0.25749E-01   -0.26252E-02   531   0.215E-01    0.268E-01
RMM:   4    -0.901257707310E+02    0.15650E-02   -0.19177E-03   531   0.746E-02    0.154E-01
RMM:   5    -0.901250342804E+02    0.73645E-03   -0.29852E-03   529   0.923E-02    0.969E-02
RMM:   6    -0.901249412249E+02    0.93056E-04   -0.14511E-04   529   0.208E-02    0.173E-02
RMM:   7    -0.901249342014E+02    0.70235E-05   -0.27387E-05   529   0.875E-03    0.792E-03
RMM:   8    -0.901249382114E+02   -0.40100E-05   -0.66315E-06   417   0.409E-03    0.218E-03
RMM:   9    -0.901249432245E+02   -0.50131E-05   -0.12337E-06   327   0.170E-03    0.112E-03
RMM:  10    -0.901249470340E+02   -0.38095E-05   -0.77759E-07   325   0.106E-03    0.576E-04
RMM:  11    -0.901249511122E+02   -0.40781E-05   -0.12021E-06   313   0.957E-04    0.425E-04
RMM:  12    -0.901249527227E+02   -0.16106E-05   -0.65352E-07   190   0.653E-04    0.230E-04
RMM:  13    -0.901249534089E+02   -0.68612E-06   -0.53711E-07   247   0.678E-04
  30 F= -.90124953E+02 E0= -.89972645E+02  d E =-.641008E-02
 curvature:  43.15 expect dE= 0.937E-01 dE for cont linesearch  0.159E-01
 ZBRENT: bracketing found
 ZBRENT: interpolating
 opt :  18.7703  next Energy=   -90.130126 (dE=-0.116E-01)
 bond charge predicted
       N       E                     dE             d eps       ncg     rms          rms(c)
DAV:   1    -0.901182516523E+02    0.67011E-02   -0.20202E+01   528   0.838E+00    0.380E-01
RMM:   2    -0.901398461047E+02   -0.21594E-01   -0.14771E-01   537   0.738E-01    0.106E+00
RMM:   3    -0.901313515047E+02    0.84946E-02   -0.10533E-02   531   0.142E-01    0.249E-01
RMM:   4    -0.901304466987E+02    0.90481E-03   -0.94549E-04   529   0.546E-02    0.101E-01
RMM:   5    -0.901301118399E+02    0.33486E-03   -0.14664E-03   529   0.645E-02    0.307E-02
RMM:   6    -0.901301025561E+02    0.92838E-05   -0.50088E-05   529   0.121E-02    0.121E-02
RMM:   7    -0.901300998641E+02    0.26921E-05   -0.14929E-05   529   0.607E-03    0.956E-03
RMM:   8    -0.901301019882E+02   -0.21242E-05   -0.31444E-06   341   0.278E-03    0.162E-03
RMM:   9    -0.901301047213E+02   -0.27331E-05   -0.69547E-07   323   0.142E-03    0.137E-03
RMM:  10    -0.901301062121E+02   -0.14908E-05   -0.27539E-07   309   0.819E-04    0.579E-04
RMM:  11    -0.901301079267E+02   -0.17147E-05   -0.35960E-07   188   0.621E-04    0.384E-04
RMM:  12    -0.901301090603E+02   -0.11336E-05   -0.46124E-07   250   0.708E-04    0.201E-04
RMM:  13    -0.901301093920E+02   -0.33170E-06   -0.16426E-07   158   0.440E-04
  31 F= -.90130109E+02 E0= -.89977526E+02  d E =-.115661E-01
 curvature:  -3.51 expect dE=-0.211E-02 dE for cont linesearch -0.526E-09
 trial: gam= 0.50714 g(F)=  0.601E-03 g(S)=  0.000E+00 ort =-0.524E-06 (trialstep = 0.625E+01)
 search vector abs. value=  0.107E-02
 bond charge predicted
       N       E                     dE             d eps       ncg     rms          rms(c)
DAV:   1    -0.901300723173E+02    0.36743E-04   -0.27827E+00   528   0.314E+00    0.212E-01
RMM:   2    -0.901332901773E+02   -0.32179E-02   -0.31802E-02   536   0.298E-01    0.188E-01
RMM:   3    -0.901335921399E+02   -0.30196E-03   -0.18360E-03   530   0.531E-02    0.323E-01
RMM:   4    -0.901326343470E+02    0.95779E-03   -0.47340E-04   529   0.299E-02    0.459E-02
RMM:   5    -0.901326205397E+02    0.13807E-04   -0.17259E-04   529   0.210E-02    0.196E-02
RMM:   6    -0.901326129593E+02    0.75804E-05   -0.24284E-05   525   0.763E-03    0.574E-03
RMM:   7    -0.901326162785E+02   -0.33192E-05   -0.25494E-06   332   0.247E-03    0.339E-03
RMM:   8    -0.901326202114E+02   -0.39328E-05   -0.11431E-06   323   0.172E-03    0.100E-03
RMM:   9    -0.901326225999E+02   -0.23886E-05   -0.34478E-07   299   0.851E-04    0.664E-04
RMM:  10    -0.901326259452E+02   -0.33453E-05   -0.87140E-07   270   0.919E-04    0.332E-04
RMM:  11    -0.901326275782E+02   -0.16330E-05   -0.75913E-07   228   0.757E-04    0.351E-04
RMM:  12    -0.901326278985E+02   -0.32024E-06   -0.24726E-07   185   0.499E-04
  32 F= -.90132628E+02 E0= -.89979546E+02  d E =-.251851E-02
 trial-energy change:   -0.002519  1 .order   -0.002545   -0.003757   -0.001333
 step:  10.0978(harm=  9.6945)  dis= 0.01773  next Energy=   -90.133031 (dE=-0.292E-02)
 bond charge predicted
       N       E                     dE             d eps       ncg     rms          rms(c)
DAV:   1    -0.901320168813E+02    0.61070E-03   -0.10507E+00   528   0.193E+00    0.130E-01
RMM:   2    -0.901332416075E+02   -0.12247E-02   -0.11964E-02   536   0.183E-01    0.120E-01
RMM:   3    -0.901333518962E+02   -0.11029E-03   -0.70612E-04   530   0.328E-02    0.200E-01
RMM:   4    -0.901329929826E+02    0.35891E-03   -0.17846E-04   529   0.184E-02    0.297E-02
RMM:   5    -0.901329732322E+02    0.19750E-04   -0.67247E-05   529   0.129E-02    0.110E-02
RMM:   6    -0.901329703433E+02    0.28888E-05   -0.86324E-06   400   0.462E-03    0.381E-03
RMM:   7    -0.901329715659E+02   -0.12225E-05   -0.10554E-06   316   0.184E-03    0.185E-03
RMM:   8    -0.901329730250E+02   -0.14592E-05   -0.42232E-07   309   0.103E-03    0.590E-04
RMM:   9    -0.901329741439E+02   -0.11189E-05   -0.13886E-07   144   0.545E-04    0.403E-04
RMM:  10    -0.901329754755E+02   -0.13316E-05   -0.42347E-07   309   0.800E-04    0.301E-04
RMM:  11    -0.901329756810E+02   -0.20552E-06   -0.44366E-08    98   0.365E-04
  33 F= -.90132976E+02 E0= -.89979586E+02  d E =-.286629E-02
 curvature:  -8.53 expect dE=-0.958E-02 dE for cont linesearch -0.504E-05
 trial: gam= 1.89436 g(F)=  0.112E-02 g(S)=  0.000E+00 ort =-0.252E-04 (trialstep = 0.154E+01)
 search vector abs. value=  0.487E-02
 bond charge predicted
       N       E                     dE             d eps       ncg     rms          rms(c)
DAV:   1    -0.901338405639E+02   -0.86509E-03   -0.79790E-01   576   0.166E+00    0.102E-01
RMM:   2    -0.901350485093E+02   -0.12079E-02   -0.78060E-03   535   0.154E-01    0.255E-01
RMM:   3    -0.901344821259E+02    0.56638E-03   -0.58632E-04   531   0.311E-02    0.527E-02
RMM:   4    -0.901344350416E+02    0.47084E-04   -0.54137E-05   529   0.131E-02    0.205E-02
RMM:   5    -0.901344196696E+02    0.15372E-04   -0.54644E-05   529   0.124E-02    0.476E-03
RMM:   6    -0.901344190131E+02    0.65644E-06   -0.11747E-06   319   0.225E-03
  34 F= -.90134419E+02 E0= -.89981003E+02  d E =-.144333E-02
 ZBRENT: can't locate minimum, use default step
 trial-energy change:   -0.001443  1 .order   -0.001464   -0.001660   -0.001267
 step:   6.1779(harm=  6.5254)  dis= 0.01264  next Energy=   -90.136483 (dE=-0.351E-02)
 bond charge predicted
       N       E                     dE             d eps       ncg     rms          rms(c)
DAV:   1    -0.901309687831E+02    0.34509E-02   -0.71792E+00   528   0.498E+00    0.312E-01
RMM:   2    -0.901423362360E+02   -0.11367E-01   -0.72147E-02   535   0.467E-01    0.758E-01
RMM:   3    -0.901365989628E+02    0.57373E-02   -0.53949E-03   531   0.934E-02    0.144E-01
RMM:   4    -0.901363646155E+02    0.23435E-03   -0.45720E-04   529   0.371E-02    0.672E-02
RMM:   5    -0.901362458287E+02    0.11879E-03   -0.49524E-04   529   0.369E-02    0.263E-02
RMM:   6    -0.901362383226E+02    0.75061E-05   -0.13349E-05   510   0.716E-03    0.659E-03
RMM:   7    -0.901362383975E+02   -0.74950E-07   -0.59001E-06   409   0.384E-03
  35 F= -.90136238E+02 E0= -.89982786E+02  d E =-.326272E-02
 curvature: -14.72 expect dE=-0.412E-02 dE for cont linesearch -0.667E-06
 trial: gam= 0.18411 g(F)=  0.280E-03 g(S)=  0.000E+00 ort =-0.149E-04 (trialstep = 0.247E+01)
 search vector abs. value=  0.440E-03
 bond charge predicted
       N       E                     dE             d eps       ncg     rms          rms(c)
DAV:   1    -0.901367205666E+02   -0.48224E-03   -0.17527E-01   576   0.774E-01    0.576E-02
RMM:   2    -0.901369382048E+02   -0.21764E-03   -0.21706E-03   534   0.739E-02    0.569E-02
RMM:   3    -0.901369567395E+02   -0.18535E-04   -0.13270E-04   529   0.140E-02    0.780E-02
RMM:   4    -0.901368986240E+02    0.58115E-04   -0.32079E-05   489   0.727E-03    0.995E-03
RMM:   5    -0.901368987958E+02   -0.17176E-06   -0.12506E-05   526   0.602E-03    0.201E-03
RMM:   6    -0.901368994546E+02   -0.65880E-06   -0.35519E-07   312   0.104E-03
  36 F= -.90136899E+02 E0= -.89983486E+02  d E =-.661057E-03
 ZBRENT: can't locate minimum, use default step
 trial-energy change:   -0.000661  1 .order   -0.000659   -0.000685   -0.000632
 step:   9.8847(harm= 31.8302)  dis= 0.00743  next Energy=   -90.140651 (dE=-0.441E-02)
 bond charge predicted
       N       E                     dE             d eps       ncg     rms          rms(c)
DAV:   1    -0.901369309835E+02   -0.32188E-04   -0.15774E+00   528   0.232E+00    0.174E-01
RMM:   2    -0.901389451227E+02   -0.20141E-02   -0.19427E-02   535   0.222E-01    0.186E-01
RMM:   3    -0.901390155633E+02   -0.70441E-04   -0.11484E-03   529   0.420E-02    0.225E-01
RMM:   4    -0.901385376101E+02    0.47795E-03   -0.26818E-04   529   0.216E-02    0.311E-02
RMM:   5    -0.901385209175E+02    0.16693E-04   -0.10595E-04   529   0.176E-02    0.674E-03
RMM:   6    -0.901385215824E+02   -0.66482E-06   -0.26978E-06   337   0.285E-03
  37 F= -.90138522E+02 E0= -.89985217E+02  d E =-.228318E-02
 curvature: -11.14 expect dE=-0.198E-02 dE for cont linesearch -0.879E-03
 ZBRENT: increasing intervall
 opt :  24.7117  next Energy=   -90.140255 (dE=-0.402E-02)
 bond charge predicted
       N       E                     dE             d eps       ncg     rms          rms(c)
DAV:   1    -0.901337946253E+02    0.47263E-02   -0.63083E+00   528   0.464E+00    0.350E-01
RMM:   2    -0.901420716259E+02   -0.82770E-02   -0.78845E-02   535   0.446E-01    0.402E-01
RMM:   3    -0.901418673518E+02    0.20427E-03   -0.45992E-03   529   0.848E-02    0.431E-01
RMM:   4    -0.901403484793E+02    0.15189E-02   -0.99996E-04   529   0.425E-02    0.698E-02
RMM:   5    -0.901401878571E+02    0.16062E-03   -0.41901E-04   529   0.355E-02    0.249E-02
RMM:   6    -0.901401857356E+02    0.21215E-05   -0.12668E-05   498   0.584E-03    0.646E-03
RMM:   7    -0.901401907839E+02   -0.50483E-05   -0.51878E-06   381   0.369E-03    0.232E-03
RMM:   8    -0.901401947887E+02   -0.40048E-05   -0.95501E-07   323   0.169E-03    0.101E-03
RMM:   9    -0.901401991400E+02   -0.43513E-05   -0.71793E-07   324   0.107E-03    0.599E-04
RMM:  10    -0.901402030478E+02   -0.39078E-05   -0.86269E-07   276   0.865E-04    0.471E-04
RMM:  11    -0.901402059593E+02   -0.29115E-05   -0.12428E-06   279   0.910E-04    0.239E-04
RMM:  12    -0.901402066265E+02   -0.66717E-06   -0.41624E-07   183   0.553E-04
  38 F= -.90140207E+02 E0= -.89987090E+02  d E =-.396823E-02
 curvature: -21.96 expect dE=-0.742E-02 dE for cont linesearch -0.979E-04
 trial: gam= 1.06317 g(F)=  0.338E-03 g(S)=  0.000E+00 ort = 0.443E-04 (trialstep = 0.327E+01)
 search vector abs. value=  0.929E-03
 bond charge predicted
       N       E                     dE             d eps       ncg     rms          rms(c)
DAV:   1    -0.901406069426E+02   -0.40098E-03   -0.61620E-01   528   0.142E+00    0.125E-01
RMM:   2    -0.901414866596E+02   -0.87972E-03   -0.91493E-03   529   0.140E-01    0.537E-02
RMM:   3    -0.901415993224E+02   -0.11266E-03   -0.47105E-04   534   0.257E-02    0.160E-01
RMM:   4    -0.901413654021E+02    0.23392E-03   -0.13382E-04   524   0.130E-02    0.225E-02
RMM:   5    -0.901413452713E+02    0.20131E-04   -0.42065E-05   529   0.115E-02    0.582E-03
RMM:   6    -0.901413453590E+02   -0.87668E-07   -0.11915E-06   323   0.193E-03
  39 F= -.90141345E+02 E0= -.89988258E+02  d E =-.113873E-02
 ZBRENT: can't locate minimum, use default step
 trial-energy change:   -0.001139  1 .order   -0.001143   -0.001261   -0.001026
 step:  13.0977(harm= 17.5789)  dis= 0.01923  next Energy=   -90.143591 (dE=-0.338E-02)
 bond charge predicted
       N       E                     dE             d eps       ncg     rms          rms(c)
DAV:   1    -0.901365945786E+02    0.47507E-02   -0.55438E+00   528   0.426E+00    0.375E-01
RMM:   2    -0.901437564561E+02   -0.71619E-02   -0.82108E-02   529   0.420E-01    0.121E-01
RMM:   3    -0.901439129465E+02   -0.15649E-03   -0.27911E-03   533   0.671E-02    0.261E-01
RMM:   4    -0.901432471080E+02    0.66584E-03   -0.45010E-04   529   0.247E-02    0.735E-02
RMM:   5    -0.901431612657E+02    0.85842E-04   -0.33021E-04   529   0.315E-02    0.146E-02
RMM:   6    -0.901431622844E+02   -0.10187E-05   -0.11781E-05   464   0.584E-03    0.704E-03
RMM:   7    -0.901431706221E+02   -0.83377E-05   -0.53817E-06   387   0.355E-03    0.313E-03
RMM:   8    -0.901431788158E+02   -0.81937E-05   -0.15964E-06   326   0.182E-03    0.152E-03
RMM:   9    -0.901431875200E+02   -0.87042E-05   -0.17740E-06   325   0.133E-03    0.816E-04
RMM:  10    -0.901431940146E+02   -0.64945E-05   -0.18709E-06   303   0.113E-03    0.564E-04
RMM:  11    -0.901431978729E+02   -0.38584E-05   -0.19457E-06   291   0.104E-03    0.285E-04
RMM:  12    -0.901431987185E+02   -0.84555E-06   -0.69351E-07   194   0.612E-04
  40 F= -.90143199E+02 E0= -.89990117E+02  d E =-.299209E-02
 curvature: -19.13 expect dE=-0.179E-01 dE for cont linesearch -0.961E-04
 ZBRENT: extrapolating
 opt :  15.8374  next Energy=   -90.143292 (dE=-0.309E-02)
 bond charge predicted
       N       E                     dE             d eps       ncg     rms          rms(c)
DAV:   1    -0.901427924690E+02    0.40540E-03   -0.43142E-01   528   0.119E+00    0.104E-01
RMM:   2    -0.901434039483E+02   -0.61148E-03   -0.63255E-03   529   0.117E-01    0.451E-02
RMM:   3    -0.901434971315E+02   -0.93183E-04   -0.33067E-04   533   0.214E-02    0.139E-01
RMM:   4    -0.901433180126E+02    0.17912E-03   -0.10086E-04   517   0.115E-02    0.194E-02
RMM:   5    -0.901432998836E+02    0.18129E-04   -0.30213E-05   528   0.980E-03    0.492E-03
RMM:   6    -0.901433001417E+02   -0.25805E-06   -0.96113E-07   321   0.173E-03
  41 F= -.90143300E+02 E0= -.89990232E+02  d E =-.309352E-02
 curvature: -18.63 expect dE=-0.254E-01 dE for cont linesearch -0.155E-05
 trial: gam= 4.27392 g(F)=  0.137E-02 g(S)=  0.000E+00 ort = 0.879E-05 (trialstep = 0.292E+00)
 search vector abs. value=  0.184E-01
 bond charge predicted
       N       E                     dE             d eps       ncg     rms          rms(c)
DAV:   1    -0.901435922115E+02   -0.29233E-03   -0.96379E-02   528   0.557E-01    0.512E-02
RMM:   2    -0.901437424366E+02   -0.15023E-03   -0.14490E-03   529   0.542E-02    0.277E-02
RMM:   3    -0.901437731716E+02   -0.30735E-04   -0.95518E-05   526   0.108E-02    0.828E-02
RMM:   4    -0.901437168737E+02    0.56298E-04   -0.34709E-05   452   0.686E-03    0.905E-03
RMM:   5    -0.901437104173E+02    0.64564E-05   -0.89294E-06   404   0.528E-03    0.182E-03
RMM:   6    -0.901437108050E+02   -0.38772E-06   -0.41340E-07   306   0.128E-03
  42 F= -.90143711E+02 E0= -.89990686E+02  d E =-.410663E-03
 ZBRENT: can't locate minimum, use default step
 trial-energy change:   -0.000411  1 .order   -0.000407   -0.000410   -0.000404
 step:   1.1680(harm= 20.4958)  dis= 0.00561  next Energy=   -90.157687 (dE=-0.144E-01)
 bond charge predicted
       N       E                     dE             d eps       ncg     rms          rms(c)
DAV:   1    -0.901437758204E+02   -0.65403E-04   -0.86762E-01   528   0.167E+00    0.153E-01
RMM:   2    -0.901450261055E+02   -0.12503E-02   -0.13029E-02   529   0.163E-01    0.969E-02
RMM:   3    -0.901453975813E+02   -0.37148E-03   -0.89274E-04   530   0.327E-02    0.255E-01
RMM:   4    -0.901448465954E+02    0.55099E-03   -0.31435E-04   529   0.207E-02    0.283E-02
RMM:   5    -0.901448140704E+02    0.32525E-04   -0.78668E-05   529   0.154E-02    0.467E-03
RMM:   6    -0.901448145183E+02   -0.44788E-06   -0.22064E-06   330   0.242E-03
  43 F= -.90144815E+02 E0= -.89991951E+02  d E =-.151438E-02
 curvature: -11.40 expect dE=-0.136E-01 dE for cont linesearch -0.834E-03
 ZBRENT: increasing intervall
 opt :   2.9201  next Energy=   -90.146455 (dE=-0.316E-02)
 bond charge predicted
       N       E                     dE             d eps       ncg     rms          rms(c)
DAV:   1    -0.901422694553E+02    0.25446E-02   -0.34699E+00   528   0.334E+00    0.307E-01
RMM:   2    -0.901470577373E+02   -0.47883E-02   -0.52457E-02   529   0.325E-01    0.223E-01
RMM:   3    -0.901485662263E+02   -0.15085E-02   -0.35901E-03   529   0.659E-02    0.510E-01
RMM:   4    -0.901465436327E+02    0.20226E-02   -0.12119E-03   529   0.410E-02    0.631E-02
RMM:   5    -0.901464563649E+02    0.87268E-04   -0.29952E-04   529   0.299E-02    0.117E-02
RMM:   6    -0.901464593006E+02   -0.29357E-05   -0.92210E-06   396   0.479E-03    0.512E-03
RMM:   7    -0.901464640090E+02   -0.47084E-05   -0.28121E-06   334   0.282E-03    0.210E-03
RMM:   8    -0.901464683448E+02   -0.43358E-05   -0.10429E-06   322   0.170E-03    0.891E-04
RMM:   9    -0.901464721270E+02   -0.37822E-05   -0.60175E-07   305   0.100E-03    0.621E-04
RMM:  10    -0.901464763422E+02   -0.42152E-05   -0.11542E-06   293   0.983E-04    0.346E-04
RMM:  11    -0.901464783925E+02   -0.20503E-05   -0.87390E-07   224   0.747E-04    0.210E-04
RMM:  12    -0.901464789923E+02   -0.59982E-06   -0.44502E-07   215   0.613E-04
  44 F= -.90146479E+02 E0= -.89993928E+02  d E =-.317885E-02
 curvature: -22.45 expect dE=-0.235E-01 dE for cont linesearch -0.710E-03
 ZBRENT: increasing intervall
 opt :   6.4242  next Energy=   -90.147762 (dE=-0.446E-02)
 bond charge predicted
       N       E                     dE             d eps       ncg     rms          rms(c)
DAV:   1    -0.901310607963E+02    0.15418E-01   -0.13875E+01   528   0.669E+00    0.619E-01
RMM:   2    -0.901512958244E+02   -0.20235E-01   -0.21528E-01   529   0.654E-01    0.546E-01
RMM:   3    -0.901548888869E+02   -0.35931E-02   -0.13888E-02   529   0.132E-01    0.972E-01
RMM:   4    -0.901477779564E+02    0.71109E-02   -0.42995E-03   529   0.789E-02    0.163E-01
RMM:   5    -0.901477085364E+02    0.69420E-04   -0.10465E-03   529   0.562E-02    0.400E-02
RMM:   6    -0.901477016555E+02    0.68809E-05   -0.35904E-05   529   0.985E-03    0.113E-02
RMM:   7    -0.901477091741E+02   -0.75186E-05   -0.91164E-06   421   0.474E-03    0.540E-03
RMM:   8    -0.901477205834E+02   -0.11409E-04   -0.38400E-06   340   0.308E-03    0.182E-03
RMM:   9    -0.901477301036E+02   -0.95201E-05   -0.15769E-06   327   0.152E-03    0.105E-03
RMM:  10    -0.901477407918E+02   -0.10688E-04   -0.26993E-06   331   0.150E-03    0.637E-04
RMM:  11    -0.901477470170E+02   -0.62252E-05   -0.23298E-06   307   0.119E-03    0.475E-04
RMM:  12    -0.901477493128E+02   -0.22958E-05   -0.13262E-06   254   0.848E-04    0.250E-04
RMM:  13    -0.901477498528E+02   -0.53996E-06   -0.45621E-07   204   0.606E-04
  45 F= -.90147750E+02 E0= -.89995798E+02  d E =-.444971E-02
 curvature: -40.56 expect dE=-0.464E-01 dE for cont linesearch -0.603E-07
 trial: gam= 0.18550 g(F)=  0.114E-02 g(S)=  0.000E+00 ort = 0.523E-05 (trialstep = 0.152E+01)
 search vector abs. value=  0.178E-02
 bond charge predicted
       N       E                     dE             d eps       ncg     rms          rms(c)
DAV:   1    -0.901488818348E+02   -0.11325E-02   -0.25230E-01   528   0.873E-01    0.861E-02
RMM:   2    -0.901495277498E+02   -0.64592E-03   -0.47355E-03   529   0.101E-01    0.185E-01
RMM:   3    -0.901492729131E+02    0.25484E-03   -0.35206E-04   529   0.221E-02    0.465E-02
RMM:   4    -0.901492174725E+02    0.55441E-04   -0.44395E-05   525   0.118E-02    0.215E-02
RMM:   5    -0.901492103392E+02    0.71333E-05   -0.24031E-05   502   0.756E-03    0.376E-03
RMM:   6    -0.901492099496E+02    0.38969E-06   -0.16667E-06   323   0.237E-03
  46 F= -.90149210E+02 E0= -.89997384E+02  d E =-.146010E-02
 ZBRENT: can't locate minimum, use default step
 trial-energy change:   -0.001460  1 .order   -0.001468   -0.001738   -0.001199
 step:   6.0738(harm=  4.8959)  dis= 0.01034  next Energy=   -90.151129 (dE=-0.338E-02)
 bond charge predicted
       N       E                     dE             d eps       ncg     rms          rms(c)
DAV:   1    -0.901473156538E+02    0.18947E-02   -0.22700E+00   528   0.262E+00    0.263E-01
RMM:   2    -0.901535655050E+02   -0.62499E-02   -0.43888E-02   529   0.306E-01    0.569E-01
RMM:   3    -0.901507068075E+02    0.28587E-02   -0.32265E-03   529   0.660E-02    0.122E-01
RMM:   4    -0.901503709046E+02    0.33590E-03   -0.36761E-04   529   0.337E-02    0.698E-02
RMM:   5    -0.901503080768E+02    0.62828E-04   -0.23254E-04   529   0.225E-02    0.122E-02
RMM:   6    -0.901503084558E+02   -0.37895E-06   -0.14352E-05   449   0.694E-03    0.107E-02
RMM:   7    -0.901503113012E+02   -0.28454E-05   -0.49637E-06   379   0.352E-03    0.245E-03
RMM:   8    -0.901503155427E+02   -0.42415E-05   -0.75991E-07   322   0.133E-03    0.147E-03
RMM:   9    -0.901503211236E+02   -0.55809E-05   -0.78625E-07   319   0.104E-03    0.644E-04
RMM:  10    -0.901503254937E+02   -0.43701E-05   -0.73932E-07   257   0.822E-04    0.559E-04
RMM:  11    -0.901503285185E+02   -0.30248E-05   -0.93717E-07   267   0.846E-04    0.317E-04
RMM:  12    -0.901503292918E+02   -0.77335E-06   -0.31649E-07   176   0.504E-04
  47 F= -.90150329E+02 E0= -.89999002E+02  d E =-.257944E-02
 curvature:  -3.34 expect dE=-0.550E-02 dE for cont linesearch -0.174E-03
 ZBRENT: interpolating
 opt :   4.8072  next Energy=   -90.150522 (dE=-0.277E-02)
 bond charge predicted
       N       E                     dE             d eps       ncg     rms          rms(c)
DAV:   1    -0.901502827839E+02    0.45735E-04   -0.17553E-01   528   0.729E-01    0.718E-02
RMM:   2    -0.901507184458E+02   -0.43566E-03   -0.33014E-03   529   0.847E-02    0.158E-01
RMM:   3    -0.901505432094E+02    0.17524E-03   -0.25061E-04   529   0.187E-02    0.381E-02
RMM:   4    -0.901505143336E+02    0.28876E-04   -0.30887E-05   517   0.976E-03    0.162E-02
RMM:   5    -0.901505154500E+02   -0.11164E-05   -0.15478E-05   466   0.610E-03    0.384E-03
RMM:   6    -0.901505159259E+02   -0.47585E-06   -0.11844E-06   318   0.204E-03
  48 F= -.90150516E+02 E0= -.89999081E+02  d E =-.276607E-02
 curvature:  -3.71 expect dE=-0.352E-02 dE for cont linesearch -0.372E-07
 trial: gam= 0.84246 g(F)=  0.950E-03 g(S)=  0.000E+00 ort = 0.422E-05 (trialstep = 0.174E+01)
 search vector abs. value=  0.222E-02
 bond charge predicted
       N       E                     dE             d eps       ncg     rms          rms(c)
DAV:   1    -0.901515235348E+02   -0.10081E-02   -0.41867E-01   528   0.116E+00    0.105E-01
RMM:   2    -0.901520846840E+02   -0.56115E-03   -0.62675E-03   529   0.116E-01    0.534E-02
RMM:   3    -0.901522479841E+02   -0.16330E-03   -0.38942E-04   529   0.221E-02    0.169E-01
RMM:   4    -0.901520321585E+02    0.21583E-03   -0.13225E-04   529   0.141E-02    0.175E-02
RMM:   5    -0.901520098317E+02    0.22327E-04   -0.38383E-05   529   0.104E-02    0.412E-03
RMM:   6    -0.901520097054E+02    0.12633E-06   -0.21280E-06   328   0.244E-03
  49 F= -.90152010E+02 E0= -.90000442E+02  d E =-.149378E-02
 ZBRENT: can't locate minimum, use default step
 trial-energy change:   -0.001494  1 .order   -0.001504   -0.001664   -0.001344
 step:   6.9749(harm=  9.0865)  dis= 0.01559  next Energy=   -90.154850 (dE=-0.433E-02)
 bond charge predicted
       N       E                     dE             d eps       ncg     rms          rms(c)
DAV:   1    -0.901499520751E+02    0.20578E-02   -0.37655E+00   528   0.349E+00    0.318E-01
RMM:   2    -0.901553162728E+02   -0.53642E-02   -0.56751E-02   529   0.348E-01    0.213E-01
RMM:   3    -0.901568146024E+02   -0.14983E-02   -0.38414E-03   529   0.692E-02    0.549E-01
RMM:   4    -0.901544146264E+02    0.24000E-02   -0.12888E-03   529   0.445E-02    0.547E-02
RMM:   5    -0.901543952716E+02    0.19355E-04   -0.28292E-04   529   0.284E-02    0.156E-02
RMM:   6    -0.901543919536E+02    0.33180E-05   -0.20130E-05   493   0.722E-03    0.715E-03
RMM:   7    -0.901543956543E+02   -0.37007E-05   -0.42005E-06   359   0.318E-03    0.373E-03
RMM:   8    -0.901544010499E+02   -0.53956E-05   -0.15230E-06   327   0.173E-03    0.103E-03
RMM:   9    -0.901544062371E+02   -0.51872E-05   -0.99710E-07   324   0.102E-03    0.675E-04
RMM:  10    -0.901544099590E+02   -0.37220E-05   -0.94978E-07   252   0.841E-04    0.404E-04
RMM:  11    -0.901544125756E+02   -0.26166E-05   -0.12902E-06   289   0.920E-04    0.259E-04
RMM:  12    -0.901544131284E+02   -0.55277E-06   -0.39714E-07   165   0.492E-04
  50 F= -.90154413E+02 E0= -.90002438E+02  d E =-.389720E-02
 curvature:  -9.70 expect dE=-0.286E-02 dE for cont linesearch -0.140E-03
 ZBRENT: extrapolating
 opt :   8.5559  next Energy=   -90.154555 (dE=-0.404E-02)
 bond charge predicted
       N       E                     dE             d eps       ncg     rms          rms(c)
DAV:   1    -0.901541516264E+02    0.26095E-03   -0.34405E-01   528   0.105E+00    0.952E-02
RMM:   2    -0.901545864619E+02   -0.43484E-03   -0.49732E-03   531   0.105E-01    0.548E-02
RMM:   3    -0.901547666758E+02   -0.18021E-03   -0.30540E-04   529   0.201E-02    0.163E-01
RMM:   4    -0.901545654772E+02    0.20120E-03   -0.11409E-04   528   0.137E-02    0.161E-02
RMM:   5    -0.901545494973E+02    0.15980E-04   -0.30804E-05   528   0.910E-03    0.387E-03
RMM:   6    -0.901545483713E+02    0.11259E-05   -0.19681E-06   326   0.230E-03    0.265E-03
RMM:   7    -0.901545485511E+02   -0.17975E-06   -0.45375E-07   305   0.124E-03
  51 F= -.90154549E+02 E0= -.90002458E+02  d E =-.403263E-02
 curvature:  -9.81 expect dE=-0.399E-02 dE for cont linesearch -0.210E-06
 trial: gam= 0.45558 g(F)=  0.407E-03 g(S)=  0.000E+00 ort = 0.689E-05 (trialstep = 0.311E+01)
 search vector abs. value=  0.874E-03
 bond charge predicted
       N       E                     dE             d eps       ncg     rms          rms(c)
DAV:   1    -0.901551324587E+02   -0.58409E-03   -0.50441E-01   528   0.125E+00    0.126E-01
RMM:   2    -0.901557854788E+02   -0.65302E-03   -0.79276E-03   529   0.123E-01    0.408E-02
RMM:   3    -0.901558891302E+02   -0.10365E-03   -0.30257E-04   530   0.207E-02    0.123E-01
RMM:   4    -0.901557813363E+02    0.10779E-03   -0.76621E-05   511   0.102E-02    0.200E-02
RMM:   5    -0.901557759361E+02    0.54002E-05   -0.34211E-05   529   0.975E-03    0.353E-03
RMM:   6    -0.901557763103E+02   -0.37422E-06   -0.11120E-06   318   0.182E-03
  52 F= -.90155776E+02 E0= -.90003712E+02  d E =-.122776E-02
 ZBRENT: can't locate minimum, use default step
 trial-energy change:   -0.001228  1 .order   -0.001238   -0.001275   -0.001202
 step:  12.4246(harm= 54.6842)  dis= 0.01546  next Energy=   -90.165769 (dE=-0.112E-01)
 bond charge predicted
       N       E                     dE             d eps       ncg     rms          rms(c)
DAV:   1    -0.901529230406E+02    0.28529E-02   -0.45385E+00   528   0.375E+00    0.379E-01
RMM:   2    -0.901594006822E+02   -0.64776E-02   -0.71894E-02   529   0.371E-01    0.167E-01
RMM:   3    -0.901614819440E+02   -0.20813E-02   -0.39031E-03   529   0.689E-02    0.597E-01
RMM:   4    -0.901586869687E+02    0.27950E-02   -0.15007E-03   529   0.440E-02    0.690E-02
RMM:   5    -0.901587926486E+02   -0.10568E-03   -0.31384E-04   529   0.296E-02    0.132E-02
RMM:   6    -0.901587947753E+02   -0.21267E-05   -0.17913E-05   476   0.688E-03    0.708E-03
RMM:   7    -0.901588009353E+02   -0.61600E-05   -0.33472E-06   344   0.281E-03    0.331E-03
RMM:   8    -0.901588092314E+02   -0.82962E-05   -0.20975E-06   327   0.195E-03    0.110E-03
RMM:   9    -0.901588153636E+02   -0.61322E-05   -0.11215E-06   325   0.108E-03    0.771E-04
RMM:  10    -0.901588210876E+02   -0.57240E-05   -0.15734E-06   304   0.109E-03    0.412E-04
RMM:  11    -0.901588242030E+02   -0.31153E-05   -0.13547E-06   257   0.878E-04    0.305E-04
RMM:  12    -0.901588251436E+02   -0.94059E-06   -0.63360E-07   206   0.630E-04
  53 F= -.90158825E+02 E0= -.90006791E+02  d E =-.427659E-02
 curvature: -19.15 expect dE=-0.665E-02 dE for cont linesearch -0.141E-02
 ZBRENT: increasing intervall
 opt :  31.0616  next Energy=   -90.161082 (dE=-0.653E-02)
 bond charge predicted
       N       E                     dE             d eps       ncg     rms          rms(c)
DAV:   1    -0.901368080729E+02    0.22016E-01   -0.18137E+01   528   0.750E+00    0.765E-01
RMM:   2    -0.901638830043E+02   -0.27075E-01   -0.29640E-01   529   0.746E-01    0.507E-01
RMM:   3    -0.901748817519E+02   -0.10999E-01   -0.18564E-02   529   0.149E-01    0.142E+00
[...]
 search vector abs. value=  0.122E-03
 bond charge predicted
       N       E                     dE             d eps       ncg     rms          rms(c)
DAV:   1    -0.906806194329E+02   -0.15368E-04   -0.58319E-01   528   0.144E+00    0.834E-02
RMM:   2    -0.906811245981E+02   -0.50517E-03   -0.55232E-03   534   0.128E-01    0.278E-02
RMM:   3    -0.906810819514E+02    0.42647E-04   -0.12692E-04   529   0.176E-02    0.232E-02
RMM:   4    -0.906810765202E+02    0.54311E-05   -0.17540E-05   460   0.535E-03    0.213E-02
RMM:   5    -0.906810686698E+02    0.78504E-05   -0.31583E-05   528   0.933E-03    0.351E-03
RMM:   6    -0.906810683715E+02    0.29832E-06   -0.83614E-07   310   0.169E-03
 167 F= -.90681068E+02 E0= -.90522431E+02  d E =-.465232E-03
 trial-energy change:   -0.000465  1 .order   -0.000459   -0.000660   -0.000258
 step:  12.8786(harm= 13.5400)  dis= 0.00300  next Energy=   -90.681142 (dE=-0.539E-03)
 bond charge predicted
       N       E                     dE             d eps       ncg     rms          rms(c)
DAV:   1    -0.906810110533E+02    0.57616E-04   -0.18383E-01   528   0.810E-01    0.470E-02
RMM:   2    -0.906811704939E+02   -0.15944E-03   -0.17435E-03   534   0.721E-02    0.155E-02
RMM:   3    -0.906811566953E+02    0.13799E-04   -0.39032E-05   529   0.986E-03    0.120E-02
RMM:   4    -0.906811555723E+02    0.11230E-05   -0.52978E-06   354   0.303E-03    0.127E-02
RMM:   5    -0.906811533256E+02    0.22467E-05   -0.98557E-06   503   0.523E-03    0.208E-03
RMM:   6    -0.906811533667E+02   -0.41036E-07   -0.31983E-07   298   0.110E-03
 168 F= -.90681153E+02 E0= -.90522520E+02  d E =-.550228E-03
 curvature: -10.17 expect dE=-0.359E-03 dE for cont linesearch -0.222E-05
 trial: gam= 0.43788 g(F)=  0.353E-04 g(S)=  0.000E+00 ort = 0.516E-05 (trialstep = 0.917E+01)
 search vector abs. value=  0.633E-04
 bond charge predicted
       N       E                     dE             d eps       ncg     rms          rms(c)
DAV:   1    -0.906812434144E+02   -0.90089E-04   -0.38610E-01   528   0.116E+00    0.337E-02
RMM:   2    -0.906814538487E+02   -0.21043E-03   -0.21412E-03   535   0.936E-02    0.193E-02
RMM:   3    -0.906814449761E+02    0.88726E-05   -0.53388E-05   529   0.128E-02    0.218E-02
RMM:   4    -0.906814387480E+02    0.62281E-05   -0.60769E-06   363   0.352E-03    0.118E-02
RMM:   5    -0.906814323142E+02    0.64338E-05   -0.26850E-05   528   0.893E-03    0.250E-03
RMM:   6    -0.906814321736E+02    0.14064E-06   -0.36300E-07   300   0.122E-03
 169 F= -.90681432E+02 E0= -.90522861E+02  d E =-.278807E-03
 trial-energy change:   -0.000279  1 .order   -0.000283   -0.000345   -0.000222
 step:  25.6634(harm= 25.6634)  dis= 0.00435  next Energy=   -90.681636 (dE=-0.482E-03)
 bond charge predicted
       N       E                     dE             d eps       ncg     rms          rms(c)
DAV:   1    -0.906810087123E+02    0.42360E-03   -0.12476E+00   528   0.209E+00    0.608E-02
RMM:   2    -0.906816877296E+02   -0.67902E-03   -0.69256E-03   535   0.168E-01    0.352E-02
RMM:   3    -0.906816593987E+02    0.28331E-04   -0.17594E-04   529   0.232E-02    0.403E-02
RMM:   4    -0.906816379528E+02    0.21446E-04   -0.21048E-05   497   0.641E-03    0.212E-02
RMM:   5    -0.906816159619E+02    0.21991E-04   -0.87578E-05   529   0.160E-02    0.452E-03
RMM:   6    -0.906816154754E+02    0.48643E-06   -0.10987E-06   310   0.220E-03
 170 F= -.90681615E+02 E0= -.90523147E+02  d E =-.462109E-03
 curvature: -21.60 expect dE=-0.100E-02 dE for cont linesearch -0.703E-08
 trial: gam= 1.45990 g(F)=  0.463E-04 g(S)=  0.000E+00 ort =-0.143E-06 (trialstep = 0.437E+01)
 search vector abs. value=  0.181E-03
 bond charge predicted
       N       E                     dE             d eps       ncg     rms          rms(c)
DAV:   1    -0.906816685238E+02   -0.52562E-04   -0.24827E-01   528   0.917E-01    0.263E-02
RMM:   2    -0.906818073606E+02   -0.13884E-03   -0.13310E-03   529   0.735E-02    0.345E-02
RMM:   3    -0.906817918785E+02    0.15482E-04   -0.52242E-05   531   0.116E-02    0.156E-02
RMM:   4    -0.906817859288E+02    0.59497E-05   -0.42362E-06   363   0.345E-03    0.109E-02
RMM:   5    -0.906817811281E+02    0.48007E-05   -0.22537E-05   528   0.807E-03    0.198E-03
RMM:   6    -0.906817811271E+02    0.10259E-08   -0.33750E-07   296   0.123E-03
 171 F= -.90681781E+02 E0= -.90523334E+02  d E =-.165652E-03
 trial-energy change:   -0.000166  1 .order   -0.000172   -0.000201   -0.000142
 step:  14.8090(harm= 14.8090)  dis= 0.00496  next Energy=   -90.681957 (dE=-0.341E-03)
 bond charge predicted
       N       E                     dE             d eps       ncg     rms          rms(c)
DAV:   1    -0.906813088538E+02    0.47227E-03   -0.14219E+00   528   0.219E+00    0.630E-02
RMM:   2    -0.906821020677E+02   -0.79321E-03   -0.76336E-03   529   0.176E-01    0.832E-02
RMM:   3    -0.906820109764E+02    0.91091E-04   -0.29984E-04   531   0.277E-02    0.371E-02
RMM:   4    -0.906819758117E+02    0.35165E-04   -0.24959E-05   529   0.826E-03    0.261E-02
RMM:   5    -0.906819452286E+02    0.30583E-04   -0.12318E-04   529   0.187E-02    0.437E-03
RMM:   6    -0.906819449108E+02    0.31784E-06   -0.18575E-06   323   0.304E-03
 172 F= -.90681945E+02 E0= -.90523559E+02  d E =-.329435E-03
 curvature: -29.02 expect dE=-0.241E-02 dE for cont linesearch -0.179E-05
 trial: gam= 1.59837 g(F)=  0.829E-04 g(S)=  0.000E+00 ort = 0.334E-05 (trialstep = 0.210E+01)
 search vector abs. value=  0.555E-03
 bond charge predicted
       N       E                     dE             d eps       ncg     rms          rms(c)
DAV:   1    -0.906820014372E+02   -0.56209E-04   -0.17317E-01   528   0.784E-01    0.341E-02
RMM:   2    -0.906821166830E+02   -0.11525E-03   -0.12110E-03   534   0.648E-02    0.128E-02
RMM:   3    -0.906821077355E+02    0.89475E-05   -0.24252E-05   530   0.866E-03    0.961E-03
RMM:   4    -0.906821066998E+02    0.10357E-05   -0.70401E-06   373   0.371E-03    0.119E-02
RMM:   5    -0.906821040762E+02    0.26236E-05   -0.54851E-06   399   0.400E-03    0.168E-03
RMM:   6    -0.906821040593E+02    0.16938E-07   -0.37707E-07   296   0.130E-03
 173 F= -.90682104E+02 E0= -.90523775E+02  d E =-.159149E-03
 ZBRENT: can't locate minimum, use default step
 trial-energy change:   -0.000159  1 .order   -0.000165   -0.000185   -0.000144
 step:   8.4022(harm=  9.4489)  dis= 0.00506  next Energy=   -90.682362 (dE=-0.417E-03)
 bond charge predicted
       N       E                     dE             d eps       ncg     rms          rms(c)
DAV:   1    -0.906814586583E+02    0.64542E-03   -0.15602E+00   528   0.235E+00    0.101E-01
RMM:   2    -0.906824764341E+02   -0.10178E-02   -0.10817E-02   535   0.194E-01    0.387E-02
RMM:   3    -0.906824049471E+02    0.71487E-04   -0.21237E-04   529   0.258E-02    0.301E-02
RMM:   4    -0.906823963597E+02    0.85874E-05   -0.57821E-05   529   0.103E-02    0.342E-02
RMM:   5    -0.906823714293E+02    0.24930E-04   -0.58425E-05   529   0.127E-02    0.506E-03
RMM:   6    -0.906823709289E+02    0.50038E-06   -0.20112E-06   325   0.251E-03
 174 F= -.90682371E+02 E0= -.90524196E+02  d E =-.426018E-03
 curvature: -29.12 expect dE=-0.638E-03 dE for cont linesearch -0.188E-04
 ZBRENT: extrapolating
 opt :  10.8000  next Energy=   -90.682394 (dE=-0.449E-03)
 bond charge predicted
       N       E                     dE             d eps       ncg     rms          rms(c)
DAV:   1    -0.906822607489E+02    0.11068E-03   -0.22584E-01   528   0.895E-01    0.388E-02
RMM:   2    -0.906824116498E+02   -0.15090E-03   -0.15674E-03   534   0.738E-02    0.150E-02
RMM:   3    -0.906823979453E+02    0.13704E-04   -0.31199E-05   529   0.983E-03    0.112E-02
RMM:   4    -0.906823967127E+02    0.12326E-05   -0.98918E-06   413   0.437E-03    0.140E-02
RMM:   5    -0.906823931954E+02    0.35174E-05   -0.76223E-06   481   0.463E-03    0.202E-03
RMM:   6    -0.906823933480E+02   -0.15264E-06   -0.39351E-07   300   0.119E-03
 175 F= -.90682393E+02 E0= -.90524275E+02  d E =-.448437E-03
 curvature: -35.19 expect dE=-0.115E-02 dE for cont linesearch -0.708E-07
 trial: gam= 0.47351 g(F)=  0.326E-04 g(S)=  0.000E+00 ort =-0.106E-05 (trialstep = 0.384E+01)
 search vector abs. value=  0.156E-03
 bond charge predicted
       N       E                     dE             d eps       ncg     rms          rms(c)
DAV:   1    -0.906824038277E+02   -0.10632E-04   -0.16169E-01   528   0.755E-01    0.361E-02
RMM:   2    -0.906825216652E+02   -0.11784E-03   -0.12135E-03   531   0.627E-02    0.189E-02
RMM:   3    -0.906825140771E+02    0.75881E-05   -0.43423E-05   529   0.950E-03    0.231E-02
RMM:   4    -0.906825055058E+02    0.85713E-05   -0.82349E-06   371   0.358E-03    0.786E-03
RMM:   5    -0.906825027717E+02    0.27340E-05   -0.10095E-05   524   0.554E-03    0.150E-03
RMM:   6    -0.906825027765E+02   -0.47294E-08   -0.16226E-07   293   0.788E-04
 176 F= -.90682503E+02 E0= -.90524370E+02  d E =-.109428E-03
 ZBRENT: can't locate minimum, use default step
 trial-energy change:   -0.000109  1 .order   -0.000111   -0.000123   -0.000098
 step:  15.3617(harm= 18.7288)  dis= 0.00466  next Energy=   -90.682694 (dE=-0.300E-03)
 bond charge predicted
       N       E                     dE             d eps       ncg     rms          rms(c)
DAV:   1    -0.906817971532E+02    0.70562E-03   -0.14553E+00   528   0.227E+00    0.108E-01
RMM:   2    -0.906828420152E+02   -0.10449E-02   -0.10945E-02   531   0.188E-01    0.582E-02
RMM:   3    -0.906827900002E+02    0.52015E-04   -0.39742E-04   530   0.287E-02    0.697E-02
RMM:   4    -0.906827112392E+02    0.78761E-04   -0.76239E-05   529   0.109E-02    0.236E-02
RMM:   5    -0.906826885587E+02    0.22680E-04   -0.90720E-05   529   0.163E-02    0.438E-03
RMM:   6    -0.906826879543E+02    0.60438E-06   -0.13126E-06   315   0.223E-03
 177 F= -.90682688E+02 E0= -.90524513E+02  d E =-.294606E-03
 curvature: -43.25 expect dE=-0.124E-02 dE for cont linesearch -0.220E-04
 ZBRENT: increasing intervall
 opt :  38.4042  next Energy=   -90.682511 (dE=-0.118E-03)
 bond charge predicted
       N       E                     dE             d eps       ncg     rms          rms(c)
DAV:   1    -0.906788118237E+02    0.38767E-02   -0.58214E+00   528   0.453E+00    0.217E-01
RMM:   2    -0.906830780638E+02   -0.42662E-02   -0.44001E-02   531   0.377E-01    0.122E-01
RMM:   3    -0.906828105949E+02    0.26747E-03   -0.16392E-03   530   0.579E-02    0.141E-01
RMM:   4    -0.906824833484E+02    0.32725E-03   -0.31118E-04   529   0.219E-02    0.475E-02
RMM:   5    -0.906823969191E+02    0.86429E-04   -0.36718E-04   529   0.329E-02    0.868E-03
RMM:   6    -0.906823947223E+02    0.21968E-05   -0.53927E-06   402   0.444E-03    0.461E-03
RMM:   7    -0.906823958168E+02   -0.10945E-05   -0.36469E-06   350   0.327E-03    0.148E-03
RMM:   8    -0.906823970399E+02   -0.12231E-05   -0.38128E-07   312   0.129E-03    0.622E-04
RMM:   9    -0.906823985020E+02   -0.14621E-05   -0.22771E-07   203   0.643E-04    0.351E-04
RMM:  10    -0.906823999422E+02   -0.14401E-05   -0.34865E-07   250   0.687E-04    0.236E-04
RMM:  11    -0.906824006916E+02   -0.74942E-06   -0.24907E-07   168   0.508E-04
 178 F= -.90682401E+02 E0= -.90524145E+02  d E =-.734358E-05
 curvature: 347.85 expect dE= 0.670E-01 dE for cont linesearch  0.222E-02
 ZBRENT: bracketing found
 ZBRENT: interpolating
 opt :  20.4347  next Energy=   -90.682711 (dE=-0.317E-03)
 bond charge predicted
       N       E                     dE             d eps       ncg     rms          rms(c)
DAV:   1    -0.906805172567E+02    0.18827E-02   -0.35407E+00   528   0.353E+00    0.168E-01
RMM:   2    -0.906830327088E+02   -0.25155E-02   -0.26492E-02   531   0.293E-01    0.813E-02
RMM:   3    -0.906829134499E+02    0.11926E-03   -0.89045E-04   530   0.437E-02    0.100E-01
RMM:   4    -0.906827463822E+02    0.16707E-03   -0.16397E-04   529   0.157E-02    0.365E-02
RMM:   5    -0.906827016858E+02    0.44696E-04   -0.21417E-04   529   0.250E-02    0.717E-03
RMM:   6    -0.906827000952E+02    0.15905E-05   -0.34253E-06   353   0.347E-03    0.346E-03
RMM:   7    -0.906827006491E+02   -0.55387E-06   -0.21680E-06   329   0.259E-03
 179 F= -.90682701E+02 E0= -.90524516E+02  d E =-.307301E-03
 curvature:  -3.54 expect dE=-0.170E-03 dE for cont linesearch -0.374E-08
 trial: gam= 1.48334 g(F)=  0.481E-04 g(S)=  0.000E+00 ort =-0.406E-06 (trialstep = 0.286E+01)
 search vector abs. value=  0.390E-03
 bond charge predicted
       N       E                     dE             d eps       ncg     rms          rms(c)
DAV:   1    -0.906826639696E+02    0.36126E-04   -0.22361E-01   528   0.894E-01    0.448E-02
RMM:   2    -0.906828273795E+02   -0.16341E-03   -0.17285E-03   536   0.740E-02    0.174E-02
RMM:   3    -0.906828152526E+02    0.12127E-04   -0.42065E-05   529   0.103E-02    0.187E-02
RMM:   4    -0.906828100064E+02    0.52463E-05   -0.72595E-06   368   0.335E-03    0.105E-02
RMM:   5    -0.906828065678E+02    0.34386E-05   -0.12218E-05   525   0.601E-03    0.163E-03
RMM:   6    -0.906828065480E+02    0.19769E-07   -0.18589E-07   301   0.881E-04
 180 F= -.90682807E+02 E0= -.90524610E+02  d E =-.105899E-03
 trial-energy change:   -0.000106  1 .order   -0.000112   -0.000136   -0.000089
 step:   8.2075(harm=  8.2075)  dis= 0.00347  next Energy=   -90.682896 (dE=-0.195E-03)
 bond charge predicted
       N       E                     dE             d eps       ncg     rms          rms(c)
DAV:   1    -0.906823913666E+02    0.41520E-03   -0.77936E-01   528   0.167E+00    0.836E-02
RMM:   2    -0.906829574646E+02   -0.56610E-03   -0.60166E-03   537   0.138E-01    0.321E-02
RMM:   3    -0.906829175536E+02    0.39911E-04   -0.14356E-04   529   0.191E-02    0.337E-02
RMM:   4    -0.906828999108E+02    0.17643E-04   -0.24984E-05   478   0.617E-03    0.201E-02
RMM:   5    -0.906828856063E+02    0.14304E-04   -0.42914E-05   528   0.111E-02    0.316E-03
RMM:   6    -0.906828855250E+02    0.81331E-07   -0.60882E-07   308   0.154E-03
 181 F= -.90682886E+02 E0= -.90524675E+02  d E =-.184876E-03
 curvature: -33.72 expect dE=-0.793E-03 dE for cont linesearch -0.122E-05
 trial: gam= 0.37687 g(F)=  0.235E-04 g(S)=  0.000E+00 ort = 0.376E-05 (trialstep = 0.393E+01)
 search vector abs. value=  0.818E-04
 bond charge predicted
       N       E                     dE             d eps       ncg     rms          rms(c)
DAV:   1    -0.906829172310E+02   -0.31625E-04   -0.89444E-02   528   0.558E-01    0.245E-02
RMM:   2    -0.906829778345E+02   -0.60603E-04   -0.63142E-04   531   0.460E-02    0.122E-02
RMM:   3    -0.906829742314E+02    0.36031E-05   -0.20308E-05   517   0.678E-03    0.144E-02
RMM:   4    -0.906829711290E+02    0.31024E-05   -0.35152E-06   334   0.241E-03    0.602E-03
RMM:   5    -0.906829699759E+02    0.11531E-05   -0.50837E-06   404   0.395E-03    0.103E-03
RMM:   6    -0.906829700121E+02   -0.36234E-07   -0.20737E-07   290   0.102E-03
 182 F= -.90682970E+02 E0= -.90524708E+02  d E =-.844871E-04
 ZBRENT: can't locate minimum, use default step
 trial-energy change:   -0.000084  1 .order   -0.000086   -0.000098   -0.000074
 step:  15.7270(harm= 15.9643)  dis= 0.00358  next Energy=   -90.683084 (dE=-0.199E-03)
 bond charge predicted
       N       E                     dE             d eps       ncg     rms          rms(c)
DAV:   1    -0.906826043841E+02    0.36559E-03   -0.80539E-01   528   0.167E+00    0.730E-02
RMM:   2    -0.906831468106E+02   -0.54243E-03   -0.56850E-03   531   0.138E-01    0.376E-02
RMM:   3    -0.906831162243E+02    0.30586E-04   -0.18853E-04   533   0.205E-02    0.439E-02
RMM:   4    -0.906830852199E+02    0.31004E-04   -0.32671E-05   493   0.706E-03    0.178E-02
RMM:   5    -0.906830723832E+02    0.12837E-04   -0.46405E-05   528   0.116E-02    0.305E-03
RMM:   6    -0.906830721061E+02    0.27713E-06   -0.67602E-07   309   0.172E-03
 183 F= -.90683072E+02 E0= -.90524674E+02  d E =-.186581E-03
 curvature: -26.18 expect dE=-0.561E-03 dE for cont linesearch -0.246E-06
 trial: gam= 0.99661 g(F)=  0.214E-04 g(S)=  0.000E+00 ort = 0.876E-06 (trialstep = 0.493E+01)
 search vector abs. value=  0.104E-03
 bond charge predicted
       N       E                     dE             d eps       ncg     rms          rms(c)
DAV:   1    -0.906830272422E+02    0.45141E-04   -0.17479E-01   528   0.790E-01    0.467E-02
RMM:   2    -0.906831738480E+02   -0.14661E-03   -0.15872E-03   531   0.671E-02    0.199E-02
RMM:   3    -0.906831697693E+02    0.40788E-05   -0.54521E-05   529   0.102E-02    0.277E-02
RMM:   4    -0.906831576538E+02    0.12116E-04   -0.11256E-05   389   0.395E-03    0.839E-03
RMM:   5    -0.906831554300E+02    0.22238E-05   -0.93666E-06   505   0.536E-03    0.162E-03
RMM:   6    -0.906831554572E+02   -0.27234E-07   -0.18101E-07   295   0.822E-04
 184 F= -.90683155E+02 E0= -.90524735E+02  d E =-.833511E-04
 trial-energy change:   -0.000083  1 .order   -0.000087   -0.000110   -0.000065
 step:  12.0127(harm= 12.0127)  dis= 0.00314  next Energy=   -90.683206 (dE=-0.134E-03)
 bond charge predicted
       N       E                     dE             d eps       ncg     rms          rms(c)
DAV:   1    -0.906829460847E+02    0.20935E-03   -0.36143E-01   528   0.114E+00    0.669E-02
RMM:   2    -0.906832536008E+02   -0.30752E-03   -0.32757E-03   531   0.964E-02    0.286E-02
RMM:   3    -0.906832383443E+02    0.15256E-04   -0.11379E-04   529   0.147E-02    0.398E-02
RMM:   4    -0.906832117559E+02    0.26588E-04   -0.23294E-05   449   0.563E-03    0.120E-02
RMM:   5    -0.906832075209E+02    0.42349E-05   -0.19559E-05   528   0.767E-03    0.235E-03
RMM:   6    -0.906832075168E+02    0.41618E-08   -0.30453E-07   303   0.104E-03
 185 F= -.90683208E+02 E0= -.90524747E+02  d E =-.135411E-03
 curvature: -28.11 expect dE=-0.598E-03 dE for cont linesearch -0.723E-06
 trial: gam= 0.94255 g(F)=  0.213E-04 g(S)=  0.000E+00 ort = 0.164E-05 (trialstep = 0.566E+01)
 search vector abs. value=  0.117E-03
 bond charge predicted
       N       E                     dE             d eps       ncg     rms          rms(c)
DAV:   1    -0.906830847545E+02    0.12277E-03   -0.25109E-01   528   0.942E-01    0.650E-02
RMM:   2    -0.906833380368E+02   -0.25328E-03   -0.27705E-03   533   0.835E-02    0.226E-02
RMM:   3    -0.906833162452E+02    0.21792E-04   -0.76203E-05   530   0.122E-02    0.270E-02
RMM:   4    -0.906833065213E+02    0.97239E-05   -0.13921E-05   409   0.435E-03    0.124E-02
RMM:   5    -0.906833011427E+02    0.53785E-05   -0.15563E-05   527   0.673E-03    0.189E-03
RMM:   6    -0.906833011158E+02    0.26965E-07   -0.29917E-07   302   0.103E-03
 186 F= -.90683301E+02 E0= -.90524766E+02  d E =-.935990E-04
 trial-energy change:   -0.000094  1 .order   -0.000092   -0.000129   -0.000056
 step:   9.9913(harm=  9.9913)  dis= 0.00246  next Energy=   -90.683321 (dE=-0.114E-03)
 bond charge predicted
       N       E                     dE             d eps       ncg     rms          rms(c)
DAV:   1    -0.906831982373E+02    0.10291E-03   -0.14745E-01   528   0.722E-01    0.497E-02
RMM:   2    -0.906833443446E+02   -0.14611E-03   -0.16285E-03   533   0.640E-02    0.174E-02
RMM:   3    -0.906833301496E+02    0.14195E-04   -0.45254E-05   528   0.945E-03    0.209E-02
RMM:   4    -0.906833241527E+02    0.59968E-05   -0.81623E-06   366   0.336E-03    0.943E-03
RMM:   5    -0.906833206979E+02    0.34548E-05   -0.89932E-06   476   0.519E-03    0.144E-03
RMM:   6    -0.906833207523E+02   -0.54424E-07   -0.23388E-07   296   0.961E-04
 187 F= -.90683321E+02 E0= -.90524734E+02  d E =-.113236E-03
 curvature: -25.65 expect dE=-0.197E-03 dE for cont linesearch -0.606E-08
 trial: gam= 0.20737 g(F)=  0.770E-05 g(S)=  0.000E+00 ort = 0.166E-06 (trialstep = 0.652E+01)
 search vector abs. value=  0.128E-04
 reached required accuracy - stopping structural energy minimisation
TACC: Shutting down parallel environment.
TACC: Shutdown complete. Exiting.
TACC: Cleaning up after job: 1684372
TACC: Done.
