<?xml version="1.0" encoding="ISO-8859-1"?>
<modeling>
 <generator>
  <i name="program" type="string">vasp </i>
  <i name="version" type="string">5.2.12  </i>
  <i name="subversion" type="string">26May11 complex  parallel </i>
  <i name="platform" type="string">LinuxIFC </i>
  <i name="date" type="string">2014 01 02 </i>
  <i name="time" type="string">18:19:21 </i>
 </generator>
 <incar>
  <i type="string" name="SYSTEM"> Pt cube particle</i>
  <i type="string" name="PREC">normal</i>
  <i type="string" name="ALGO"> Fast</i>
  <i type="int" name="ISPIN">     1</i>
  <i type="int" name="IBRION">     2</i>
  <i name="EDIFF">      0.00000100</i>
  <i name="EDIFFG">     -0.01000000</i>
  <i type="int" name="NSW">   250</i>
  <i type="int" name="ISIF">     0</i>
  <i type="int" name="ISYM">     0</i>
  <i name="ENMAX">    274.00000000</i>
  <i name="ENCUT">    274.00000000</i>
  <i name="POTIM">      0.10000000</i>
  <i type="string" name="LREAL">Auto</i>
  <i type="int" name="ISMEAR">     0</i>
  <i type="logical" name="LWAVE"> F  </i>
  <i type="logical" name="LCHARG"> F  </i>
  <i type="logical" name="LPEAD"> F  </i>
  <i type="logical" name="LCALCPOL"> F  </i>
  <i type="logical" name="LCALCEPS"> F  </i>
  <v name="EFIELD_PEAD">      0.00000000      0.00000000      0.00000000</v>
  <i type="logical" name="LEFG"> F  </i>
  <v name="QUAD_EFG">      1.00000000      1.00000000      1.00000000</v>
  <i type="logical" name="LRHFATM"> F  </i>
  <i type="string" name="METAGGA">--</i>
  <i type="int" name="LMAXTAU">     0</i>
 </incar>
 <kpoints>
  <generation param="Monkhorst-Pack">
   <v type="int" name="divisions">       1        1        1 </v>
   <v name="usershift">      0.00000000       0.00000000       0.00000000 </v>
   <v name="genvec1">      1.00000000       0.00000000       0.00000000 </v>
   <v name="genvec2">      0.00000000       1.00000000       0.00000000 </v>
   <v name="genvec3">      0.00000000       0.00000000       1.00000000 </v>
   <v name="shift">      0.00000000       0.00000000       0.00000000 </v>
  </generation>
  <varray name="kpointlist" >
   <v>       0.00000000       0.00000000       0.00000000 </v>
  </varray>
  <varray name="weights" >
   <v>       1.00000000 </v>
  </varray>
 </kpoints>
 <parameters>
  <separator name="general" >
   <i type="string" name="SYSTEM">Pt cube particle</i>
   <i type="logical" name="LCOMPAT"> F  </i>
  </separator>
  <separator name="electronic" >
   <i type="string" name="PREC">normal</i>
   <i name="ENMAX">    274.00000000</i>
   <i name="ENAUG">    605.39200000</i>
   <i name="EDIFF">      0.00000100</i>
   <i type="int" name="IALGO">    68</i>
   <i type="int" name="IWAVPR">    11</i>
   <i type="int" name="NBANDS">   264</i>
   <i name="NELECT">    424.00000000</i>
   <i type="int" name="TURBO">     0</i>
   <i type="int" name="IRESTART">     0</i>
   <i type="int" name="NREBOOT">     0</i>
   <i type="int" name="NMIN">     0</i>
   <i name="EREF">      0.00000000</i>
   <separator name="electronic smearing" >
    <i type="int" name="ISMEAR">     0</i>
    <i name="SIGMA">      0.20000000</i>
    <i name="KSPACING">      0.50000000</i>
    <i type="logical" name="KGAMMA"> T  </i>
   </separator>
   <separator name="electronic projectors" >
    <i type="logical" name="LREAL"> T  </i>
    <v name="ROPT">     -0.00050000     -0.00050000     -0.00050000</v>
    <i type="int" name="LMAXPAW">  -100</i>
    <i type="int" name="LMAXMIX">     2</i>
   </separator>
   <separator name="electronic startup" >
    <i type="int" name="ISTART">     0</i>
    <i type="int" name="ICHARG">     2</i>
    <i type="int" name="INIWAV">     1</i>
   </separator>
   <separator name="electronic spin" >
    <i type="int" name="ISPIN">     1</i>
    <i type="logical" name="LNONCOLLINEAR"> F  </i>
    <v name="MAGMOM">      1.00000000      1.00000000      1.00000000      1.00000000      1.00000000      1.00000000      1.00000000      1.00000000      1.00000000      1.00000000      1.00000000      1.00000000      1.00000000      1.00000000      1.00000000      1.00000000      1.00000000      1.00000000      1.00000000      1.00000000
      1.00000000      1.00000000      1.00000000      1.00000000      1.00000000      1.00000000      1.00000000      1.00000000      1.00000000      1.00000000      1.00000000      1.00000000      1.00000000      1.00000000      1.00000000      1.00000000      1.00000000      1.00000000      1.00000000</v>
    <i name="NUPDOWN">     -1.00000000</i>
    <i type="logical" name="LSORBIT"> F  </i>
    <v name="SAXIS">      0.00000000      0.00000000      1.00000000</v>
    <i type="logical" name="LSPIRAL"> F  </i>
    <v name="QSPIRAL">      0.00000000      0.00000000      0.00000000</v>
    <i type="logical" name="LZEROZ"> F  </i>
   </separator>
   <separator name="electronic exchange-correlation" >
    <i type="logical" name="LASPH"> F  </i>
    <i type="logical" name="LMETAGGA"> F  </i>
   </separator>
   <separator name="electronic convergence" >
    <i type="int" name="NELM">    60</i>
    <i type="int" name="NELMDL">    -5</i>
    <i type="int" name="NELMIN">     2</i>
    <i name="ENINI">    274.00000000</i>
    <separator name="electronic convergence detail" >
     <i type="logical" name="LDIAG"> T  </i>
     <i type="logical" name="LSUBROT"> T  </i>
     <i name="WEIMIN">      0.00100000</i>
     <i name="EBREAK">      0.00000000</i>
     <i name="DEPER">      0.30000000</i>
     <i type="int" name="NRMM">     4</i>
     <i name="TIME">      0.40000000</i>
    </separator>
   </separator>
   <separator name="electronic mixer" >
    <i name="AMIX">      0.40000000</i>
    <i name="BMIX">      1.00000000</i>
    <i name="AMIN">      0.10000000</i>
    <i name="AMIX_MAG">      1.60000000</i>
    <i name="BMIX_MAG">      1.00000000</i>
    <separator name="electronic mixer details" >
     <i type="int" name="IMIX">     4</i>
     <i type="int" name="MAXMIX">   -45</i>
     <i name="WC">    100.00000000</i>
     <i type="int" name="INIMIX">     1</i>
     <i type="int" name="MIXPRE">     1</i>
     <i type="int" name="MREMOVE">     5</i>
    </separator>
   </separator>
   <separator name="electronic dipolcorrection" >
    <i type="logical" name="LDIPOL"> F  </i>
    <i type="logical" name="LMONO"> F  </i>
    <i type="int" name="IDIPOL">     0</i>
    <i name="EPSILON">      1.00000000</i>
    <v name="DIPOL">   -100.00000000   -100.00000000   -100.00000000</v>
    <i name="EFIELD">      0.00000000</i>
   </separator>
  </separator>
  <separator name="grids" >
   <i type="int" name="NGX">    80</i>
   <i type="int" name="NGY">    80</i>
   <i type="int" name="NGZ">    80</i>
   <i type="int" name="NGXF">   160</i>
   <i type="int" name="NGYF">   160</i>
   <i type="int" name="NGZF">   160</i>
   <i type="logical" name="ADDGRID"> F  </i>
  </separator>
  <separator name="ionic" >
   <i type="int" name="NSW">   250</i>
   <i type="int" name="IBRION">     2</i>
   <i type="int" name="ISIF">     0</i>
   <i name="PSTRESS">      0.00000000</i>
   <i name="EDIFFG">     -0.01000000</i>
   <i type="int" name="NFREE">     1</i>
   <i name="POTIM">      0.10000000</i>
   <i name="SMASS">     -3.00000000</i>
   <i name="SCALEE">      1.00000000</i>
  </separator>
  <separator name="ionic md" >
   <i name="TEBEG">      0.00010000</i>
   <i name="TEEND">      0.00010000</i>
   <i type="int" name="NBLOCK">     1</i>
   <i type="int" name="KBLOCK">   250</i>
   <i type="int" name="NPACO">   256</i>
   <i name="APACO">     16.00000000</i>
  </separator>
  <separator name="symmetry" >
   <i type="int" name="ISYM">     0</i>
   <i name="SYMPREC">      0.00001000</i>
  </separator>
  <separator name="dos" >
   <i type="logical" name="LORBIT"> F  </i>
   <v name="RWIGS">     -1.00000000     -1.00000000     -1.00000000</v>
   <i type="int" name="NEDOS">   301</i>
   <i name="EMIN">     10.00000000</i>
   <i name="EMAX">    -10.00000000</i>
   <i name="EFERMI">      0.00000000</i>
  </separator>
  <separator name="writing" >
   <i type="int" name="NWRITE">     2</i>
   <i type="logical" name="LWAVE"> F  </i>
   <i type="logical" name="LCHARG"> F  </i>
   <i type="logical" name="LPARD"> F  </i>
   <i type="logical" name="LVTOT"> F  </i>
   <i type="logical" name="LVHAR"> F  </i>
   <i type="logical" name="LELF"> F  </i>
   <i type="logical" name="LOPTICS"> F  </i>
   <v name="STM">      0.00000000      0.00000000      0.00000000      0.00000000      0.00000000      0.00000000      0.00000000</v>
  </separator>
  <separator name="performance" >
   <i type="int" name="NPAR">    24</i>
   <i type="int" name="NSIM">     4</i>
   <i type="int" name="NBLK">    -1</i>
   <i type="logical" name="LPLANE"> T  </i>
   <i type="logical" name="LSCALAPACK"> F  </i>
   <i type="logical" name="LSCAAWARE"> F  </i>
   <i type="logical" name="LSCALU"> F  </i>
   <i type="logical" name="LASYNC"> F  </i>
   <i type="logical" name="LORBITALREAL"> F  </i>
  </separator>
  <separator name="miscellaneous" >
   <i type="int" name="IDIOT">     3</i>
   <i type="logical" name="LMUSIC"> F  </i>
   <v name="POMASS">    107.86800000    196.96600000     16.00000000</v>
   <v name="DARWINR">      0.00000000      0.00000000      0.00000000</v>
   <v name="DARWINV">      1.00000000      1.00000000      1.00000000</v>
   <i type="logical" name="LCORR"> T  </i>
  </separator>
  <i type="logical" name="GGA_COMPAT"> T  </i>
  <i type="logical" name="LBERRY"> F  </i>
  <i type="int" name="ICORELEVEL">     0</i>
  <i type="logical" name="LDAU"> F  </i>
  <i type="int" name="I_CONSTRAINED_M">     0</i>
  <separator name="electronic exchange-correlation" >
   <i type="string" name="GGA">--</i>
   <i type="int" name="VOSKOWN">     0</i>
   <i type="logical" name="LHFCALC"> F  </i>
   <i type="string" name="PRECFOCK"></i>
   <i type="logical" name="LHFONE"> F  </i>
   <i type="logical" name="LRHFCALC"> F  </i>
   <i type="logical" name="LTHOMAS"> F  </i>
   <i type="logical" name="LMODELHF"> F  </i>
   <i name="ENCUT4O">     -1.00000000</i>
   <i type="int" name="EXXOEP">     0</i>
   <i type="int" name="FOURORBIT">     0</i>
   <i name="AEXX">      0.00000000</i>
   <i name="HFALPHA">      0.00000000</i>
   <i name="ALDAX">      1.00000000</i>
   <i name="AGGAX">      1.00000000</i>
   <i name="ALDAC">      1.00000000</i>
   <i name="AGGAC">      1.00000000</i>
   <i type="int" name="NKREDX">     1</i>
   <i type="int" name="NKREDY">     1</i>
   <i type="int" name="NKREDZ">     1</i>
   <i type="logical" name="SHIFTRED"> F  </i>
   <i type="logical" name="ODDONLY"> F  </i>
   <i type="logical" name="EVENONLY"> F  </i>
   <i type="int" name="LMAXFOCK">     0</i>
   <i type="int" name="NMAXFOCKAE">     0</i>
   <i type="logical" name="LFOCKAEDFT"> F  </i>
   <i name="HFSCREEN">      0.00000000</i>
   <i name="HFSCREENC">      0.00000000</i>
  </separator>
  <separator name="model GW" >
   <i type="int" name="MODEL_GW">     0</i>
   <i name="MODEL_EPS0">     89.72307692</i>
   <i name="MODEL_ALPHA">      1.00000000</i>
  </separator>
  <separator name="linear response parameters" >
   <i type="logical" name="LEPSILON"> F  </i>
   <i type="logical" name="LRPA"> F  </i>
   <i type="logical" name="LNABLA"> F  </i>
   <i type="logical" name="LVEL"> F  </i>
   <i type="int" name="KINTER">     0</i>
   <i name="CSHIFT">      0.10000000</i>
   <i name="OMEGAMAX">     -1.00000000</i>
  </separator>
  <separator name="orbital magnetization" >
   <i type="logical" name="NUCIND"> F  </i>
   <v name="MAGPOS">      0.00000000      0.00000000      0.00000000</v>
   <i type="logical" name="LNICSALL"> T  </i>
   <i type="logical" name="ORBITALMAG"> F  </i>
   <i type="logical" name="LMAGBLOCH"> F  </i>
   <i type="logical" name="LCHIMAG"> F  </i>
   <i type="logical" name="LGAUGE"> T  </i>
   <i type="int" name="MAGATOM">     0</i>
   <v name="MAGDIPOL">      0.00000000      0.00000000      0.00000000</v>
   <v name="AVECCONST">      0.00000000      0.00000000      0.00000000</v>
  </separator>
  <separator name="response functions" >
   <i type="logical" name="LADDER"> F  </i>
   <i type="logical" name="LHARTREE"> T  </i>
   <i type="int" name="IBSE">     0</i>
   <i type="logical" name="LTCTE"> F  </i>
   <i type="logical" name="LTETE"> F  </i>
   <i type="logical" name="L2ORDER"> F  </i>
   <i type="logical" name="LUSEW"> F  </i>
   <i name="ENCUTGW">     -2.00000000</i>
   <i name="ENCUTGWSOFT">     -2.00000000</i>
   <i name="ENCUTLF">     -1.00000000</i>
   <i type="int" name="LMAXMP2">    -1</i>
   <i name="SCISSOR">      0.00000000</i>
   <i type="int" name="NOMEGA">     0</i>
   <i type="int" name="NOMEGAR">     0</i>
   <i type="int" name="NBANDSGW">    -1</i>
   <i type="int" name="NBANDSO">    -1</i>
   <i type="int" name="NBANDSV">    -1</i>
   <i name="OPTEMAX">      0.00000000</i>
   <i type="int" name="NELM">     1</i>
   <i type="int" name="DIM">     3</i>
   <i type="int" name="ANTIRES">     0</i>
   <i name="OMEGAMAX">    -30.00000000</i>
   <i name="OMEGATL">   -200.00000000</i>
   <i type="int" name="OMEGAGRID">     0</i>
   <i name="CSHIFT">     -0.10000000</i>
   <i type="logical" name="SELFENERGY"> F  </i>
   <i type="logical" name="LSPECTRAL"> F  </i>
   <i type="logical" name="ODDONLYGW"> F  </i>
   <i type="logical" name="EVENONLYGW"> F  </i>
   <i type="int" name="NKREDLFX">     1</i>
   <i type="int" name="NKREDLFY">     1</i>
   <i type="int" name="NKREDLFZ">     1</i>
   <i type="int" name="MAXMEM">  1800</i>
   <i type="int" name="TELESCOPE">     0</i>
  </separator>
 </parameters>
 <atominfo>
  <atoms>      39 </atoms>
  <types>       3 </types>
  <array name="atoms" >
   <dimension dim="1">ion</dimension>
   <field type="string">element</field>
   <field type="int">atomtype</field>
   <set>
    <rc><c>Ag</c><c>   1</c></rc>
    <rc><c>Ag</c><c>   1</c></rc>
    <rc><c>Ag</c><c>   1</c></rc>
    <rc><c>Ag</c><c>   1</c></rc>
    <rc><c>Ag</c><c>   1</c></rc>
    <rc><c>Ag</c><c>   1</c></rc>
    <rc><c>Ag</c><c>   1</c></rc>
    <rc><c>Ag</c><c>   1</c></rc>
    <rc><c>Ag</c><c>   1</c></rc>
    <rc><c>Ag</c><c>   1</c></rc>
    <rc><c>Ag</c><c>   1</c></rc>
    <rc><c>Ag</c><c>   1</c></rc>
    <rc><c>Ag</c><c>   1</c></rc>
    <rc><c>Ag</c><c>   1</c></rc>
    <rc><c>Ag</c><c>   1</c></rc>
    <rc><c>Ag</c><c>   1</c></rc>
    <rc><c>Ag</c><c>   1</c></rc>
    <rc><c>Ag</c><c>   1</c></rc>
    <rc><c>Ag</c><c>   1</c></rc>
    <rc><c>Ag</c><c>   1</c></rc>
    <rc><c>Ag</c><c>   1</c></rc>
    <rc><c>Ag</c><c>   1</c></rc>
    <rc><c>Ag</c><c>   1</c></rc>
    <rc><c>Ag</c><c>   1</c></rc>
    <rc><c>Ag</c><c>   1</c></rc>
    <rc><c>Ag</c><c>   1</c></rc>
    <rc><c>Ag</c><c>   1</c></rc>
    <rc><c>Ag</c><c>   1</c></rc>
    <rc><c>Ag</c><c>   1</c></rc>
    <rc><c>Ag</c><c>   1</c></rc>
    <rc><c>Ag</c><c>   1</c></rc>
    <rc><c>Ag</c><c>   1</c></rc>
    <rc><c>Au</c><c>   2</c></rc>
    <rc><c>Au</c><c>   2</c></rc>
    <rc><c>Au</c><c>   2</c></rc>
    <rc><c>Au</c><c>   2</c></rc>
    <rc><c>Au</c><c>   2</c></rc>
    <rc><c>Au</c><c>   2</c></rc>
    <rc><c>O </c><c>   3</c></rc>
   </set>
  </array>
  <array name="atomtypes" >
   <dimension dim="1">type</dimension>
   <field type="int">atomspertype</field>
   <field type="string">element</field>
   <field>mass</field>
   <field>valence</field>
   <field type="string">pseudopotential</field>
   <set>
    <rc><c>  32</c><c>Ag</c><c>    107.86800000</c><c>     11.00000000</c><c>  PAW Ag                                </c></rc>
    <rc><c>   6</c><c>Au</c><c>    196.96600000</c><c>     11.00000000</c><c>  PAW Au                                </c></rc>
    <rc><c>   1</c><c>O </c><c>     16.00000000</c><c>      6.00000000</c><c>  PAW O                                 </c></rc>
   </set>
  </array>
 </atominfo>
 <structure name="initialpos" >
  <crystal>
   <varray name="basis" >
    <v>      18.00000000       0.00000000       0.00000000 </v>
    <v>       0.00000000      18.00000000       0.00000000 </v>
    <v>       0.00000000       0.00000000      18.00000000 </v>
   </varray>
   <i name="volume">   5832.00000000 </i>
   <varray name="rec_basis" >
    <v>       0.05555556       0.00000000       0.00000000 </v>
    <v>       0.00000000       0.05555556       0.00000000 </v>
    <v>       0.00000000       0.00000000       0.05555556 </v>
   </varray>
  </crystal>
  <varray name="positions" >
   <v>       0.57400827       0.42585608       0.49972915 </v>
   <v>       0.57310093       0.72257403       0.50020304 </v>
   <v>       0.27768266       0.57328361       0.50008765 </v>
   <v>       0.42649001       0.72224946       0.50032579 </v>
   <v>       0.27752107       0.42669729       0.49967158 </v>
   <v>       0.42669656       0.27752145       0.49967177 </v>
   <v>       0.72224904       0.42648933       0.50032604 </v>
   <v>       0.57328263       0.27768254       0.50008798 </v>
   <v>       0.66896875       0.49995173       0.61818177 </v>
   <v>       0.33052645       0.49955494       0.61777083 </v>
   <v>       0.49995230       0.66896893       0.61818181 </v>
   <v>       0.49955423       0.33052680       0.61777078 </v>
   <v>       0.64859535       0.64859483       0.60775332 </v>
   <v>       0.35179083       0.64787838       0.60867190 </v>
   <v>       0.35095914       0.35095981       0.60785692 </v>
   <v>       0.64787761       0.35179055       0.60867192 </v>
   <v>       0.66669582       0.49992260       0.38142030 </v>
   <v>       0.33324668       0.50023761       0.38106483 </v>
   <v>       0.49992331       0.66669587       0.38141995 </v>
   <v>       0.50023715       0.33324678       0.38106528 </v>
   <v>       0.64822278       0.64822213       0.39408735 </v>
   <v>       0.35147837       0.64865839       0.39385916 </v>
   <v>       0.35173155       0.35173198       0.39365192 </v>
   <v>       0.64865782       0.35147791       0.39385971 </v>
   <v>       0.57638974       0.57638949       0.70826448 </v>
   <v>       0.42473085       0.57491493       0.70837530 </v>
   <v>       0.42323825       0.42323859       0.70830097 </v>
   <v>       0.57491455       0.42473071       0.70837515 </v>
   <v>       0.57501197       0.57501134       0.28935832 </v>
   <v>       0.42501837       0.57524295       0.28921835 </v>
   <v>       0.42516456       0.42516441       0.28927688 </v>
   <v>       0.57524302       0.42501779       0.28921884 </v>
   <v>       0.49988834       0.49988836       0.60266917 </v>
   <v>       0.42580374       0.42580397       0.49972068 </v>
   <v>       0.42585642       0.57400848       0.49972903 </v>
   <v>       0.49998908       0.49998890       0.39412654 </v>
   <v>       0.57405800       0.57405761       0.49977677 </v>
   <v>       0.72257430       0.57309990       0.50020326 </v>
   <v>       0.78356377       0.59407971       0.53035928 </v>
  </varray>
 </structure>
 <calculation>
  <scstep>
   <time name="dav">    5.22    5.22</time>
   <time name="total">    5.54    5.60</time>
   <energy>
    <i name="alphaZ">    450.39332547 </i>
    <i name="ewald">  82575.30097586 </i>
    <i name="hartreedc">-120449.16287593 </i>
    <i name="XCdc">   -236.83518536 </i>
    <i name="pawpsdc">  32599.81660702 </i>
    <i name="pawaedc"> -30986.55933942 </i>
    <i name="eentropy">     -0.83973940 </i>
    <i name="bandstr">    -74.16865711 </i>
    <i name="atom">  39221.48738872 </i>
    <i name="e_fr_energy">   3099.43249986 </i>
    <i name="e_wo_entrp">   3100.27223926 </i>
    <i name="e_0_energy">   3099.85236956 </i>
   </energy>
  </scstep>
  <scstep>
   <time name="dav">    6.68    6.68</time>
   <time name="total">    6.68    6.70</time>
   <energy>
    <i name="e_fr_energy">    356.09408303 </i>
    <i name="e_wo_entrp">    356.46778693 </i>
    <i name="e_0_energy">    356.28093498 </i>
   </energy>
  </scstep>
  <scstep>
   <time name="dav">    5.95    5.95</time>
   <time name="total">    5.95    5.98</time>
   <energy>
    <i name="e_fr_energy">    -61.76563782 </i>
    <i name="e_wo_entrp">    -61.40259347 </i>
    <i name="e_0_energy">    -61.58411564 </i>
   </energy>
  </scstep>
  <scstep>
   <time name="dav">    5.77    5.77</time>
   <time name="total">    5.77    5.80</time>
   <energy>
    <i name="e_fr_energy">    -76.84533948 </i>
    <i name="e_wo_entrp">    -76.54970481 </i>
    <i name="e_0_energy">    -76.69752215 </i>
   </energy>
  </scstep>
  <scstep>
   <time name="dav">    5.76    5.76</time>
   <time name="total">    6.17    6.18</time>
   <energy>
    <i name="e_fr_energy">    -77.16068683 </i>
    <i name="e_wo_entrp">    -76.87132972 </i>
    <i name="e_0_energy">    -77.01600827 </i>
   </energy>
  </scstep>
  <scstep>
   <time name="diag">    1.15    1.15</time>
   <time name="diis">    2.74    2.74</time>
   <time name="orth">    0.27    0.27</time>
   <time name="total">    4.87    4.90</time>
   <energy>
    <i name="e_fr_energy">    -68.56192336 </i>
    <i name="e_wo_entrp">    -68.31761634 </i>
    <i name="e_0_energy">    -68.43976985 </i>
   </energy>
  </scstep>
  <scstep>
   <time name="diag">    1.16    1.16</time>
   <time name="diis">    2.72    2.74</time>
   <time name="orth">    0.27    0.27</time>
   <time name="total">    4.87    4.92</time>
   <energy>
    <i name="e_fr_energy">    -67.95128709 </i>
    <i name="e_wo_entrp">    -67.60834993 </i>
    <i name="e_0_energy">    -67.77981851 </i>
   </energy>
  </scstep>
  <scstep>
   <time name="diag">    1.15    1.15</time>
   <time name="diis">    2.72    2.72</time>
   <time name="orth">    0.27    0.27</time>
   <time name="total">    4.86    4.88</time>
   <energy>
    <i name="e_fr_energy">    -67.49522917 </i>
    <i name="e_wo_entrp">    -67.22581822 </i>
    <i name="e_0_energy">    -67.36052370 </i>
   </energy>
  </scstep>
  <scstep>
   <time name="diag">    1.15    1.15</time>
   <time name="diis">    2.76    2.76</time>
   <time name="orth">    0.27    0.27</time>
   <time name="total">    4.89    4.90</time>
   <energy>
    <i name="e_fr_energy">    -67.33480568 </i>
    <i name="e_wo_entrp">    -67.04757556 </i>
    <i name="e_0_energy">    -67.19119062 </i>
   </energy>
  </scstep>
  <scstep>
   <time name="diag">    1.14    1.15</time>
   <time name="diis">    2.74    2.74</time>
   <time name="orth">    0.27    0.27</time>
   <time name="total">    4.88    4.90</time>
   <energy>
    <i name="e_fr_energy">    -67.30568445 </i>
    <i name="e_wo_entrp">    -67.01923266 </i>
    <i name="e_0_energy">    -67.16245856 </i>
   </energy>
  </scstep>
  <scstep>
   <time name="diag">    1.15    1.15</time>
   <time name="diis">    2.74    2.73</time>
   <time name="orth">    0.26    0.27</time>
   <time name="total">    4.87    4.88</time>
   <energy>
    <i name="e_fr_energy">    -67.30320244 </i>
    <i name="e_wo_entrp">    -67.01820980 </i>
    <i name="e_0_energy">    -67.16070612 </i>
   </energy>
  </scstep>
  <scstep>
   <time name="diag">    1.14    1.14</time>
   <time name="diis">    2.76    2.76</time>
   <time name="orth">    0.27    0.27</time>
   <time name="total">    4.88    4.89</time>
   <energy>
    <i name="e_fr_energy">    -67.30285561 </i>
    <i name="e_wo_entrp">    -67.01793881 </i>
    <i name="e_0_energy">    -67.16039721 </i>
   </energy>
  </scstep>
  <scstep>
   <time name="diag">    1.15    1.15</time>
   <time name="diis">    2.74    2.75</time>
   <time name="orth">    0.26    0.27</time>
   <time name="total">    4.88    4.90</time>
   <energy>
    <i name="e_fr_energy">    -67.30593226 </i>
    <i name="e_wo_entrp">    -67.02000537 </i>
    <i name="e_0_energy">    -67.16296881 </i>
   </energy>
  </scstep>
  <scstep>
   <time name="diag">    1.14    1.15</time>
   <time name="diis">    2.74    2.73</time>
   <time name="orth">    0.27    0.27</time>
   <time name="total">    4.88    4.88</time>
   <energy>
    <i name="e_fr_energy">    -67.31005074 </i>
    <i name="e_wo_entrp">    -67.02398447 </i>
    <i name="e_0_energy">    -67.16701760 </i>
   </energy>
  </scstep>
  <scstep>
   <time name="diag">    1.14    1.14</time>
   <time name="diis">    2.74    2.74</time>
   <time name="orth">    0.27    0.27</time>
   <time name="total">    4.89    4.89</time>
   <energy>
    <i name="e_fr_energy">    -67.31503215 </i>
    <i name="e_wo_entrp">    -67.02914029 </i>
    <i name="e_0_energy">    -67.17208622 </i>
   </energy>
  </scstep>
  <scstep>
   <time name="diag">    1.14    1.15</time>
   <time name="diis">    2.75    2.75</time>
   <time name="orth">    0.27    0.27</time>
   <time name="total">    4.89    4.90</time>
   <energy>
    <i name="e_fr_energy">    -67.31657177 </i>
    <i name="e_wo_entrp">    -67.03058374 </i>
    <i name="e_0_energy">    -67.17357776 </i>
   </energy>
  </scstep>
  <scstep>
   <time name="diag">    1.15    1.15</time>
   <time name="diis">    2.72    2.71</time>
   <time name="orth">    0.27    0.27</time>
   <time name="total">    4.88    4.88</time>
   <energy>
    <i name="e_fr_energy">    -67.31718419 </i>
    <i name="e_wo_entrp">    -67.03128359 </i>
    <i name="e_0_energy">    -67.17423389 </i>
   </energy>
  </scstep>
  <scstep>
   <time name="diag">    1.14    1.14</time>
   <time name="diis">    2.06    2.07</time>
   <time name="orth">    0.27    0.27</time>
   <time name="total">    4.21    4.22</time>
   <energy>
    <i name="e_fr_energy">    -67.31740327 </i>
    <i name="e_wo_entrp">    -67.03152048 </i>
    <i name="e_0_energy">    -67.17446187 </i>
   </energy>
  </scstep>
  <scstep>
   <time name="diag">    1.15    1.15</time>
   <time name="diis">    2.10    2.10</time>
   <time name="orth">    0.26    0.27</time>
   <time name="total">    4.26    4.27</time>
   <energy>
    <i name="e_fr_energy">    -67.31760316 </i>
    <i name="e_wo_entrp">    -67.03170575 </i>
    <i name="e_0_energy">    -67.17465446 </i>
   </energy>
  </scstep>
  <scstep>
   <time name="diag">    1.16    1.15</time>
   <time name="diis">    1.87    1.87</time>
   <time name="orth">    0.27    0.27</time>
   <time name="total">    4.04    4.05</time>
   <energy>
    <i name="e_fr_energy">    -67.31767857 </i>
    <i name="e_wo_entrp">    -67.03175191 </i>
    <i name="e_0_energy">    -67.17471524 </i>
   </energy>
  </scstep>
  <scstep>
   <time name="diag">    1.15    1.15</time>
   <time name="diis">    1.75    1.75</time>
   <time name="orth">    0.27    0.27</time>
   <time name="total">    3.91    3.92</time>
   <energy>
    <i name="e_fr_energy">    -67.31770577 </i>
    <i name="e_wo_entrp">    -67.03178008 </i>
    <i name="e_0_energy">    -67.17474293 </i>
   </energy>
  </scstep>
  <scstep>
   <time name="diag">    1.14    1.15</time>
   <time name="diis">    1.56    1.55</time>
   <time name="orth">    0.27    0.27</time>
   <time name="total">    3.70    3.72</time>
   <energy>
    <i name="e_fr_energy">    -67.31770978 </i>
    <i name="e_wo_entrp">    -67.03178723 </i>
    <i name="e_0_energy">    -67.17474851 </i>
   </energy>
  </scstep>
  <scstep>
   <time name="diag">    1.14    1.14</time>
   <time name="diis">    1.47    1.47</time>
   <time name="orth">    0.27    0.27</time>
   <time name="total">    3.20    3.21</time>
   <energy>
    <i name="alphaZ">    450.39332547 </i>
    <i name="ewald">  82575.30097586 </i>
    <i name="hartreedc">-120252.05396695 </i>
    <i name="XCdc">   -249.32586064 </i>
    <i name="pawpsdc">  33319.63092760 </i>
    <i name="pawaedc"> -31810.90222283 </i>
    <i name="eentropy">     -0.28592403 </i>
    <i name="bandstr">  -3321.56235285 </i>
    <i name="atom">  39221.48738872 </i>
    <i name="e_fr_energy">    -67.31770965 </i>
    <i name="e_wo_entrp">    -67.03178563 </i>
    <i name="e_0_energy">    -67.17474764 </i>
   </energy>
  </scstep>
  <parameters_embedded>
   <separator name="dft+d2" >
    <i type="logical" name="LVDW"> F  </i>
   </separator>
  </parameters_embedded>
  <structure>
   <crystal>
    <varray name="basis" >
     <v>      18.00000000       0.00000000       0.00000000 </v>
     <v>       0.00000000      18.00000000       0.00000000 </v>
     <v>       0.00000000       0.00000000      18.00000000 </v>
    </varray>
    <i name="volume">   5832.00000000 </i>
    <varray name="rec_basis" >
     <v>       0.05555556       0.00000000       0.00000000 </v>
     <v>       0.00000000       0.05555556       0.00000000 </v>
     <v>       0.00000000       0.00000000       0.05555556 </v>
    </varray>
   </crystal>
   <varray name="positions" >
    <v>       0.57400827       0.42585608       0.49972915 </v>
    <v>       0.57310093       0.72257403       0.50020304 </v>
    <v>       0.27768266       0.57328361       0.50008765 </v>
    <v>       0.42649001       0.72224946       0.50032579 </v>
    <v>       0.27752107       0.42669729       0.49967158 </v>
    <v>       0.42669656       0.27752145       0.49967177 </v>
    <v>       0.72224904       0.42648933       0.50032604 </v>
    <v>       0.57328263       0.27768254       0.50008798 </v>
    <v>       0.66896875       0.49995173       0.61818177 </v>
    <v>       0.33052645       0.49955494       0.61777083 </v>
    <v>       0.49995230       0.66896893       0.61818181 </v>
    <v>       0.49955423       0.33052680       0.61777078 </v>
    <v>       0.64859535       0.64859483       0.60775332 </v>
    <v>       0.35179083       0.64787838       0.60867190 </v>
    <v>       0.35095914       0.35095981       0.60785692 </v>
    <v>       0.64787761       0.35179055       0.60867192 </v>
    <v>       0.66669582       0.49992260       0.38142030 </v>
    <v>       0.33324668       0.50023761       0.38106483 </v>
    <v>       0.49992331       0.66669587       0.38141995 </v>
    <v>       0.50023715       0.33324678       0.38106528 </v>
    <v>       0.64822278       0.64822213       0.39408735 </v>
    <v>       0.35147837       0.64865839       0.39385916 </v>
    <v>       0.35173155       0.35173198       0.39365192 </v>
    <v>       0.64865782       0.35147791       0.39385971 </v>
    <v>       0.57638974       0.57638949       0.70826448 </v>
    <v>       0.42473085       0.57491493       0.70837530 </v>
    <v>       0.42323825       0.42323859       0.70830097 </v>
    <v>       0.57491455       0.42473071       0.70837515 </v>
    <v>       0.57501197       0.57501134       0.28935832 </v>
    <v>       0.42501837       0.57524295       0.28921835 </v>
    <v>       0.42516456       0.42516441       0.28927688 </v>
    <v>       0.57524302       0.42501779       0.28921884 </v>
    <v>       0.49988834       0.49988836       0.60266917 </v>
    <v>       0.42580374       0.42580397       0.49972068 </v>
    <v>       0.42585642       0.57400848       0.49972903 </v>
    <v>       0.49998908       0.49998890       0.39412654 </v>
    <v>       0.57405800       0.57405761       0.49977677 </v>
    <v>       0.72257430       0.57309990       0.50020326 </v>
    <v>       0.78356377       0.59407971       0.53035928 </v>
   </varray>
  </structure>
  <varray name="forces" >
   <v>       0.74716293      -0.72694770      -0.05616449 </v>
   <v>       0.68482865       1.78069284      -0.05186204 </v>
   <v>      -1.71946770       0.81065155       0.00001151 </v>
   <v>      -0.77310092       1.61421676      -0.01642049 </v>
   <v>      -1.45877776      -0.76959810       0.00546075 </v>
   <v>      -0.73332407      -1.59985672      -0.03154274 </v>
   <v>       1.23755772      -1.21673766      -0.05571871 </v>
   <v>       0.79334108      -1.52292920      -0.02807500 </v>
   <v>       0.12846238      -0.32793847       0.90854184 </v>
   <v>      -0.58023087      -0.01228387       0.70696989 </v>
   <v>       0.08269632       0.52844391       0.62955019 </v>
   <v>       0.00885528      -0.49904287       0.64340483 </v>
   <v>       0.75618477       1.49335616       0.60742981 </v>
   <v>      -1.23753062       1.20529005       0.27655079 </v>
   <v>      -1.27663186      -1.20664644       0.22545506 </v>
   <v>       1.20183370      -1.22301862       0.12721013 </v>
   <v>       0.40068898      -0.18160728      -0.58756905 </v>
   <v>      -0.64042076       0.00456140      -0.45349941 </v>
   <v>       0.09811528       0.69711903      -0.47440269 </v>
   <v>      -0.00165707      -0.66095793      -0.44548247 </v>
   <v>       0.86547848       1.20414168      -0.83800042 </v>
   <v>      -1.11725397       1.08359569      -0.69848243 </v>
   <v>      -1.11132907      -1.10356866      -0.68305504 </v>
   <v>       1.05293696      -1.11619371      -0.57833823 </v>
   <v>       0.10450448       0.13000772       1.73303638 </v>
   <v>      -0.20451632       0.12273950       1.79324431 </v>
   <v>      -0.10601524      -0.12742160       1.69812824 </v>
   <v>       0.09468928      -0.07561436       1.60665989 </v>
   <v>       0.47094650       0.53409090      -1.63147855 </v>
   <v>      -0.52461851       0.47179754      -1.63188389 </v>
   <v>      -0.49452787      -0.51471051      -1.63695390 </v>
   <v>       0.48757737      -0.46407567      -1.53016402 </v>
   <v>       0.10120608      -0.08832813       1.87528052 </v>
   <v>      -0.73646657      -0.92239736      -0.08596474 </v>
   <v>      -0.91945188       0.95492977      -0.06831212 </v>
   <v>       0.18497579      -0.08873231      -0.95908460 </v>
   <v>       0.31515436       0.28411445      -0.11269754 </v>
   <v>     -77.19746018     -26.22558505     -39.52656364 </v>
   <v>      81.01558484      27.75444327      39.34478208 </v>
  </varray>
  <energy>
   <i name="e_fr_energy">    -67.31770965 </i>
   <i name="e_wo_entrp">    -67.17474764 </i>
   <i name="e_0_energy">     -0.28592403 </i>
  </energy>
  <time name="totalsc">  115.04  115.48</time>
 </calculation>
 <calculation>
  <scstep>
   <time name="dav">    5.21    5.21</time>
   <time name="total">    5.95    5.97</time>
   <energy>
    <i name="alphaZ">    450.39332547 </i>
    <i name="ewald">  82179.62243965 </i>
    <i name="hartreedc">-119900.55354369 </i>
    <i name="XCdc">   -250.40765891 </i>
    <i name="pawpsdc">  33319.65369779 </i>
    <i name="pawaedc"> -31810.92495678 </i>
    <i name="eentropy">     -0.26033474 </i>
    <i name="bandstr">  -3259.78315921 </i>
    <i name="atom">  39221.48738872 </i>
    <i name="e_fr_energy">    -50.77280170 </i>
    <i name="e_wo_entrp">    -50.51246696 </i>
    <i name="e_0_energy">    -50.64263433 </i>
   </energy>
  </scstep>
  <scstep>
   <time name="diag">    1.15    1.15</time>
   <time name="diis">    2.83    2.83</time>
   <time name="orth">    0.27    0.27</time>
   <time name="total">    4.96    4.97</time>
   <energy>
    <i name="e_fr_energy">    -82.03706753 </i>
    <i name="e_wo_entrp">    -81.99483862 </i>
    <i name="e_0_energy">    -82.01595307 </i>
   </energy>
  </scstep>
  <scstep>
   <time name="diag">    1.15    1.15</time>
   <time name="diis">    2.86    2.87</time>
   <time name="orth">    0.27    0.27</time>
   <time name="total">    5.00    5.02</time>
   <energy>
    <i name="e_fr_energy">    -79.62152702 </i>
    <i name="e_wo_entrp">    -79.34989030 </i>
    <i name="e_0_energy">    -79.48570866 </i>
   </energy>
  </scstep>
  <scstep>
   <time name="diag">    1.15    1.15</time>
   <time name="diis">    2.73    2.73</time>
   <time name="orth">    0.26    0.27</time>
   <time name="total">    4.87    4.89</time>
   <energy>
    <i name="e_fr_energy">    -74.04641902 </i>
    <i name="e_wo_entrp">    -73.77516215 </i>
    <i name="e_0_energy">    -73.91079058 </i>
   </energy>
  </scstep>
  <scstep>
   <time name="diag">    1.14    1.15</time>
   <time name="diis">    2.73    2.73</time>
   <time name="orth">    0.27    0.27</time>
   <time name="total">    4.87    4.89</time>
   <energy>
    <i name="e_fr_energy">    -83.02125918 </i>
    <i name="e_wo_entrp">    -82.59421367 </i>
    <i name="e_0_energy">    -82.80773643 </i>
   </energy>
  </scstep>
  <scstep>
   <time name="diag">    1.15    1.15</time>
   <time name="diis">    2.70    2.70</time>
   <time name="orth">    0.27    0.27</time>
   <time name="total">    4.84    4.86</time>
   <energy>
    <i name="e_fr_energy">    -74.68062967 </i>
    <i name="e_wo_entrp">    -74.41049367 </i>
    <i name="e_0_energy">    -74.54556167 </i>
   </energy>
  </scstep>
  <scstep>
   <time name="diag">    1.15    1.15</time>
   <time name="diis">    2.73    2.73</time>
   <time name="orth">    0.27    0.27</time>
   <time name="total">    4.87    4.90</time>
   <energy>
    <i name="e_fr_energy">    -75.41716488 </i>
    <i name="e_wo_entrp">    -75.15062942 </i>
    <i name="e_0_energy">    -75.28389715 </i>
   </energy>
  </scstep>
  <scstep>
   <time name="diag">    1.14    1.15</time>
   <time name="diis">    2.74    2.74</time>
   <time name="orth">    0.27    0.27</time>
   <time name="total">    4.88    4.89</time>
   <energy>
    <i name="e_fr_energy">    -72.87047476 </i>
    <i name="e_wo_entrp">    -72.55170603 </i>
    <i name="e_0_energy">    -72.71109039 </i>
   </energy>
  </scstep>
  <scstep>
   <time name="diag">    1.15    1.15</time>
   <time name="diis">    2.77    2.77</time>
   <time name="orth">    0.27    0.27</time>
   <time name="total">    4.92    4.95</time>
   <energy>
    <i name="e_fr_energy">    -72.83681896 </i>
    <i name="e_wo_entrp">    -72.51643153 </i>
    <i name="e_0_energy">    -72.67662525 </i>
   </energy>
  </scstep>
  <scstep>
   <time name="diag">    1.15    1.15</time>
   <time name="diis">    2.74    2.74</time>
   <time name="orth">    0.27    0.27</time>
   <time name="total">    4.87    4.88</time>
   <energy>
    <i name="e_fr_energy">    -73.05951272 </i>
    <i name="e_wo_entrp">    -72.79832599 </i>
    <i name="e_0_energy">    -72.92891936 </i>
   </energy>
  </scstep>
  <scstep>
   <time name="diag">    1.15    1.15</time>
   <time name="diis">    2.73    2.73</time>
   <time name="orth">    0.27    0.27</time>
   <time name="total">    4.86    4.90</time>
   <energy>
    <i name="e_fr_energy">    -72.80208619 </i>
    <i name="e_wo_entrp">    -72.43024655 </i>
    <i name="e_0_energy">    -72.61616637 </i>
   </energy>
  </scstep>
  <scstep>
   <time name="diag">    1.15    1.15</time>
   <time name="diis">    2.78    2.78</time>
   <time name="orth">    0.27    0.27</time>
   <time name="total">    4.92    4.94</time>
   <energy>
    <i name="e_fr_energy">    -72.88044891 </i>
    <i name="e_wo_entrp">    -72.44389142 </i>
    <i name="e_0_energy">    -72.66217017 </i>
   </energy>
  </scstep>
  <scstep>
   <time name="diag">    1.15    1.15</time>
   <time name="diis">    2.75    2.75</time>
   <time name="orth">    0.27    0.27</time>
   <time name="total">    4.89    4.90</time>
   <energy>
    <i name="e_fr_energy">    -72.85300233 </i>
    <i name="e_wo_entrp">    -72.42015102 </i>
    <i name="e_0_energy">    -72.63657667 </i>
   </energy>
  </scstep>
  <scstep>
   <time name="diag">    1.15    1.15</time>
   <time name="diis">    2.76    2.76</time>
   <time name="orth">    0.27    0.27</time>
   <time name="total">    4.90    4.93</time>
   <energy>
    <i name="e_fr_energy">    -72.82664886 </i>
    <i name="e_wo_entrp">    -72.49678720 </i>
    <i name="e_0_energy">    -72.66171803 </i>
   </energy>
  </scstep>
  <scstep>
   <time name="diag">    1.15    1.15</time>
   <time name="diis">    2.74    2.75</time>
   <time name="orth">    0.27    0.27</time>
   <time name="total">    4.88    4.90</time>
   <energy>
    <i name="e_fr_energy">    -72.78879192 </i>
    <i name="e_wo_entrp">    -72.41647065 </i>
    <i name="e_0_energy">    -72.60263129 </i>
   </energy>
  </scstep>
  <scstep>
   <time name="diag">    1.15    1.15</time>
   <time name="diis">    2.75    2.75</time>
   <time name="orth">    0.27    0.27</time>
   <time name="total">    4.90    4.91</time>
   <energy>
    <i name="e_fr_energy">    -72.80426807 </i>
    <i name="e_wo_entrp">    -72.44269741 </i>
    <i name="e_0_energy">    -72.62348274 </i>
   </energy>
  </scstep>
  <scstep>
   <time name="diag">    1.15    1.15</time>
   <time name="diis">    2.74    2.73</time>
   <time name="orth">    0.27    0.27</time>
   <time name="total">    4.88    4.89</time>
   <energy>
    <i name="e_fr_energy">    -72.89692174 </i>
    <i name="e_wo_entrp">    -72.45280613 </i>
    <i name="e_0_energy">    -72.67486394 </i>
   </energy>
  </scstep>
  <scstep>
   <time name="diag">    1.15    1.15</time>
   <time name="diis">    2.75    2.75</time>
   <time name="orth">    0.27    0.27</time>
   <time name="total">    4.90    4.91</time>
   <energy>
    <i name="e_fr_energy">    -72.79105190 </i>
    <i name="e_wo_entrp">    -72.37950013 </i>
    <i name="e_0_energy">    -72.58527601 </i>
   </energy>
  </scstep>
  <scstep>
   <time name="diag">    1.15    1.15</time>
   <time name="diis">    2.74    2.74</time>
   <time name="orth">    0.27    0.27</time>
   <time name="total">    4.88    4.89</time>
   <energy>
    <i name="e_fr_energy">    -72.80164610 </i>
    <i name="e_wo_entrp">    -72.38720831 </i>
    <i name="e_0_energy">    -72.59442721 </i>
   </energy>
  </scstep>
  <scstep>
   <time name="diag">    1.15    1.15</time>
   <time name="diis">    2.73    2.73</time>
   <time name="orth">    0.27    0.27</time>
   <time name="total">    4.88    4.90</time>
   <energy>
    <i name="e_fr_energy">    -72.80224086 </i>
    <i name="e_wo_entrp">    -72.40068018 </i>
    <i name="e_0_energy">    -72.60146052 </i>
   </energy>
  </scstep>
  <scstep>
   <time name="diag">    1.15    1.15</time>
   <time name="diis">    2.74    2.74</time>
   <time name="orth">    0.27    0.27</time>
   <time name="total">    4.89    4.90</time>
   <energy>
    <i name="e_fr_energy">    -72.80520493 </i>
    <i name="e_wo_entrp">    -72.41498573 </i>
    <i name="e_0_energy">    -72.61009533 </i>
   </energy>
  </scstep>
  <scstep>
   <time name="diag">    1.15    1.15</time>
   <time name="diis">    2.75    2.75</time>
   <time name="orth">    0.27    0.27</time>
   <time name="total">    4.89    4.91</time>
   <energy>
    <i name="e_fr_energy">    -72.80316143 </i>
    <i name="e_wo_entrp">    -72.40223332 </i>
    <i name="e_0_energy">    -72.60269737 </i>
   </energy>
  </scstep>
  <scstep>
   <time name="diag">    1.15    1.15</time>
   <time name="diis">    2.75    2.75</time>
   <time name="orth">    0.27    0.27</time>
   <time name="total">    4.89    4.90</time>
   <energy>
    <i name="e_fr_energy">    -72.80356904 </i>
    <i name="e_wo_entrp">    -72.39435517 </i>
    <i name="e_0_energy">    -72.59896210 </i>
   </energy>
  </scstep>
  <scstep>
   <time name="diag">    1.15    1.15</time>
   <time name="diis">    2.72    2.72</time>
   <time name="orth">    0.27    0.27</time>
   <time name="total">    4.88    4.90</time>
   <energy>
    <i name="e_fr_energy">    -72.80382141 </i>
    <i name="e_wo_entrp">    -72.39671487 </i>
    <i name="e_0_energy">    -72.60026814 </i>
   </energy>
  </scstep>
  <scstep>
   <time name="diag">    1.15    1.15</time>
   <time name="diis">    2.19    2.19</time>
   <time name="orth">    0.27    0.27</time>
   <time name="total">    4.34    4.37</time>
   <energy>
    <i name="e_fr_energy">    -72.80401345 </i>
    <i name="e_wo_entrp">    -72.39585589 </i>
    <i name="e_0_energy">    -72.59993467 </i>
   </energy>
  </scstep>
  <scstep>
   <time name="diag">    1.15    1.15</time>
   <time name="diis">    1.98    1.98</time>
   <time name="orth">    0.27    0.27</time>
   <time name="total">    4.12    4.14</time>
   <energy>
    <i name="e_fr_energy">    -72.80406173 </i>
    <i name="e_wo_entrp">    -72.39753697 </i>
    <i name="e_0_energy">    -72.60079935 </i>
   </energy>
  </scstep>
  <scstep>
   <time name="diag">    1.15    1.15</time>
   <time name="diis">    1.92    1.92</time>
   <time name="orth">    0.27    0.27</time>
   <time name="total">    4.08    4.10</time>
   <energy>
    <i name="e_fr_energy">    -72.80409414 </i>
    <i name="e_wo_entrp">    -72.39802923 </i>
    <i name="e_0_energy">    -72.60106169 </i>
   </energy>
  </scstep>
  <scstep>
   <time name="diag">    1.15    1.15</time>
   <time name="diis">    1.83    1.83</time>
   <time name="orth">    0.26    0.27</time>
   <time name="total">    3.99    4.00</time>
   <energy>
    <i name="e_fr_energy">    -72.80409906 </i>
    <i name="e_wo_entrp">    -72.39704736 </i>
    <i name="e_0_energy">    -72.60057321 </i>
   </energy>
  </scstep>
  <scstep>
   <time name="diag">    1.15    1.15</time>
   <time name="diis">    1.82    1.83</time>
   <time name="orth">    0.27    0.27</time>
   <time name="total">    3.98    4.00</time>
   <energy>
    <i name="e_fr_energy">    -72.80410604 </i>
    <i name="e_wo_entrp">    -72.39670681 </i>
    <i name="e_0_energy">    -72.60040643 </i>
   </energy>
  </scstep>
  <scstep>
   <time name="diag">    1.15    1.15</time>
   <time name="diis">    1.78    1.78</time>
   <time name="orth">    0.27    0.27</time>
   <time name="total">    3.95    3.96</time>
   <energy>
    <i name="e_fr_energy">    -72.80410467 </i>
    <i name="e_wo_entrp">    -72.39714516 </i>
    <i name="e_0_energy">    -72.60062491 </i>
   </energy>
  </scstep>
  <scstep>
   <time name="diag">    1.14    1.14</time>
   <time name="diis">    1.51    1.51</time>
   <time name="orth">    0.27    0.27</time>
   <time name="total">    3.24    3.27</time>
   <energy>
    <i name="alphaZ">    450.39332547 </i>
    <i name="ewald">  82179.62243965 </i>
    <i name="hartreedc">-119843.05060860 </i>
    <i name="XCdc">   -251.11130528 </i>
    <i name="pawpsdc">  33186.82586943 </i>
    <i name="pawaedc"> -31673.32959044 </i>
    <i name="eentropy">     -0.40682395 </i>
    <i name="bandstr">  -3343.23480029 </i>
    <i name="atom">  39221.48738872 </i>
    <i name="e_fr_energy">    -72.80410530 </i>
    <i name="e_wo_entrp">    -72.39728135 </i>
    <i name="e_0_energy">    -72.60069332 </i>
   </energy>
  </scstep>
  <structure>
   <crystal>
    <varray name="basis" >
     <v>      18.00000000       0.00000000       0.00000000 </v>
     <v>       0.00000000      18.00000000       0.00000000 </v>
     <v>       0.00000000       0.00000000      18.00000000 </v>
    </varray>
    <i name="volume">   5832.00000000 </i>
    <varray name="rec_basis" >
     <v>       0.05555556       0.00000000       0.00000000 </v>
     <v>       0.00000000       0.05555556       0.00000000 </v>
     <v>       0.00000000       0.00000000       0.05555556 </v>
    </varray>
   </crystal>
   <varray name="positions" >
    <v>       0.57440877       0.42546642       0.49969904 </v>
    <v>       0.57346801       0.72352853       0.50017524 </v>
    <v>       0.27676097       0.57371815       0.50008766 </v>
    <v>       0.42607561       0.72311472       0.50031699 </v>
    <v>       0.27673912       0.42628477       0.49967450 </v>
    <v>       0.42630347       0.27666388       0.49965486 </v>
    <v>       0.72291240       0.42583712       0.50029617 </v>
    <v>       0.57370789       0.27686621       0.50007293 </v>
    <v>       0.66903761       0.49977594       0.61866877 </v>
    <v>       0.33021543       0.49954836       0.61814979 </v>
    <v>       0.49999663       0.66925219       0.61851926 </v>
    <v>       0.49955897       0.33025930       0.61811567 </v>
    <v>       0.64900068       0.64939531       0.60807892 </v>
    <v>       0.35112748       0.64852445       0.60882014 </v>
    <v>       0.35027482       0.35031302       0.60797777 </v>
    <v>       0.64852183       0.35113498       0.60874010 </v>
    <v>       0.66691060       0.49982525       0.38110535 </v>
    <v>       0.33290340       0.50024005       0.38082174 </v>
    <v>       0.49997590       0.66706955       0.38116566 </v>
    <v>       0.50023626       0.33289249       0.38082649 </v>
    <v>       0.64868671       0.64886759       0.39363816 </v>
    <v>       0.35087948       0.64923923       0.39348475 </v>
    <v>       0.35113584       0.35114044       0.39328578 </v>
    <v>       0.64922222       0.35087959       0.39354971 </v>
    <v>       0.57644576       0.57645918       0.70919344 </v>
    <v>       0.42462122       0.57498072       0.70933653 </v>
    <v>       0.42318142       0.42317029       0.70921122 </v>
    <v>       0.57496531       0.42469018       0.70923637 </v>
    <v>       0.57526441       0.57529763       0.28848379 </v>
    <v>       0.42473716       0.57549585       0.28834362 </v>
    <v>       0.42489948       0.42488851       0.28839943 </v>
    <v>       0.57550437       0.42476904       0.28839863 </v>
    <v>       0.49994259       0.49984101       0.60367437 </v>
    <v>       0.42540897       0.42530954       0.49967460 </v>
    <v>       0.42536356       0.57452035       0.49969241 </v>
    <v>       0.50008823       0.49994134       0.39361244 </v>
    <v>       0.57422693       0.57420990       0.49971636 </v>
    <v>       0.68119419       0.55904221       0.47901586 </v>
    <v>       0.82699052       0.60895691       0.55144925 </v>
   </varray>
  </structure>
  <varray name="forces" >
   <v>       0.45610329      -0.98835759       0.08861533 </v>
   <v>       0.59650438       1.68736031      -0.01416231 </v>
   <v>      -1.53711491       0.72117664      -0.00611417 </v>
   <v>      -0.66029963       1.53728099      -0.00961646 </v>
   <v>      -1.51717710      -0.72540328      -0.04741644 </v>
   <v>      -0.65551290      -1.49519687      -0.02866168 </v>
   <v>       2.07094009      -1.70346766       0.36074386 </v>
   <v>       0.71742138      -1.44306651      -0.02123440 </v>
   <v>       0.82124317       0.09961015       0.64239139 </v>
   <v>      -0.46409973       0.00533691       0.61700578 </v>
   <v>       0.02941139       0.46023390       0.52437191 </v>
   <v>       0.01500109      -0.41125785       0.52095053 </v>
   <v>       1.72045141       1.09236458       0.17344793 </v>
   <v>      -1.09946329       1.08822694       0.31534251 </v>
   <v>      -1.10420870      -1.08870582       0.28409019 </v>
   <v>       1.02077860      -1.12994565       0.21535323 </v>
   <v>      -0.94670212      -7.84241036     -13.33383415 </v>
   <v>      -0.59666367      -0.02416875      -0.40653518 </v>
   <v>      -0.04486835       0.62116280      -0.39904821 </v>
   <v>       0.01735779      -0.55026876      -0.34215494 </v>
   <v>       0.01872029       5.09395149      -4.26872955 </v>
   <v>      -0.99251388       1.00369257      -0.67390519 </v>
   <v>      -1.03962274      -1.01151971      -0.67634856 </v>
   <v>       0.94862775      -1.04445580      -0.61040271 </v>
   <v>       0.10974200       0.16047912       1.57577384 </v>
   <v>      -0.22866992       0.19646772       1.61274879 </v>
   <v>      -0.17893902      -0.16062386       1.53260185 </v>
   <v>       0.13567816      -0.19555370       1.53592251 </v>
   <v>       0.38980549       0.45957101      -1.53207297 </v>
   <v>      -0.43663093       0.46173425      -1.48309021 </v>
   <v>      -0.44712182      -0.44298992      -1.45527299 </v>
   <v>       0.41962933      -0.48624637      -1.47306666 </v>
   <v>       0.00763036      -0.15502583       1.54026383 </v>
   <v>      -0.49198816      -0.77903869      -0.00213464 </v>
   <v>      -0.76832202       0.76419780       0.05170068 </v>
   <v>      -0.20629919      -0.19914355      -0.96394314 </v>
   <v>     -24.36436060       4.14388784       4.92847119 </v>
   <v>      29.50257402       2.69819258      11.49525646 </v>
   <v>      -1.21704132      -0.41808105      -0.26730725 </v>
  </varray>
  <energy>
   <i name="e_fr_energy">    -72.80410530 </i>
   <i name="e_wo_entrp">    -72.60069332 </i>
   <i name="e_0_energy">     -0.40682395 </i>
  </energy>
  <time name="totalsc">  149.28  149.81</time>
 </calculation>
 <calculation>
  <scstep>
   <time name="dav">    5.39    5.39</time>
   <time name="total">    6.12    6.12</time>
   <energy>
    <i name="alphaZ">    450.39332547 </i>
    <i name="ewald">  82189.84805316 </i>
    <i name="hartreedc">-119860.41586724 </i>
    <i name="XCdc">   -251.38226991 </i>
    <i name="pawpsdc">  33186.83035352 </i>
    <i name="pawaedc"> -31673.33422291 </i>
    <i name="eentropy">     -0.34662966 </i>
    <i name="bandstr">  -3339.10747164 </i>
    <i name="atom">  39221.48738872 </i>
    <i name="e_fr_energy">    -76.02734048 </i>
    <i name="e_wo_entrp">    -75.68071083 </i>
    <i name="e_0_energy">    -75.85402565 </i>
   </energy>
  </scstep>
  <scstep>
   <time name="diag">    1.14    1.14</time>
   <time name="diis">    2.74    2.74</time>
   <time name="orth">    0.27    0.27</time>
   <time name="total">    4.87    4.89</time>
   <energy>
    <i name="e_fr_energy">    -76.60110739 </i>
    <i name="e_wo_entrp">    -76.20513310 </i>
    <i name="e_0_energy">    -76.40312024 </i>
   </energy>
  </scstep>
  <scstep>
   <time name="diag">    1.15    1.15</time>
   <time name="diis">    2.71    2.71</time>
   <time name="orth">    0.27    0.27</time>
   <time name="total">    4.85    4.87</time>
   <energy>
    <i name="e_fr_energy">    -76.26265061 </i>
    <i name="e_wo_entrp">    -75.91915493 </i>
    <i name="e_0_energy">    -76.09090277 </i>
   </energy>
  </scstep>
  <scstep>
   <time name="diag">    1.15    1.15</time>
   <time name="diis">    2.74    2.74</time>
   <time name="orth">    0.27    0.27</time>
   <time name="total">    4.87    4.90</time>
   <energy>
    <i name="e_fr_energy">    -76.29056326 </i>
    <i name="e_wo_entrp">    -75.93830060 </i>
    <i name="e_0_energy">    -76.11443193 </i>
   </energy>
  </scstep>
  <scstep>
   <time name="diag">    1.15    1.15</time>
   <time name="diis">    2.73    2.73</time>
   <time name="orth">    0.27    0.27</time>
   <time name="total">    4.86    4.88</time>
   <energy>
    <i name="e_fr_energy">    -76.28238931 </i>
    <i name="e_wo_entrp">    -75.90995713 </i>
    <i name="e_0_energy">    -76.09617322 </i>
   </energy>
  </scstep>
  <scstep>
   <time name="diag">    1.15    1.14</time>
   <time name="diis">    2.75    2.75</time>
   <time name="orth">    0.27    0.27</time>
   <time name="total">    4.89    4.90</time>
   <energy>
    <i name="e_fr_energy">    -76.28194035 </i>
    <i name="e_wo_entrp">    -75.90516378 </i>
    <i name="e_0_energy">    -76.09355207 </i>
   </energy>
  </scstep>
  <scstep>
   <time name="diag">    1.15    1.15</time>
   <time name="diis">    2.75    2.76</time>
   <time name="orth">    0.27    0.27</time>
   <time name="total">    4.90    4.92</time>
   <energy>
    <i name="e_fr_energy">    -76.28177777 </i>
    <i name="e_wo_entrp">    -75.90199136 </i>
    <i name="e_0_energy">    -76.09188457 </i>
   </energy>
  </scstep>
  <scstep>
   <time name="diag">    1.15    1.15</time>
   <time name="diis">    2.77    2.77</time>
   <time name="orth">    0.27    0.27</time>
   <time name="total">    4.91    4.92</time>
   <energy>
    <i name="e_fr_energy">    -76.28186824 </i>
    <i name="e_wo_entrp">    -75.90170593 </i>
    <i name="e_0_energy">    -76.09178708 </i>
   </energy>
  </scstep>
  <scstep>
   <time name="diag">    1.14    1.14</time>
   <time name="diis">    2.35    2.35</time>
   <time name="orth">    0.27    0.27</time>
   <time name="total">    4.47    4.49</time>
   <energy>
    <i name="e_fr_energy">    -76.28208993 </i>
    <i name="e_wo_entrp">    -75.90271651 </i>
    <i name="e_0_energy">    -76.09240322 </i>
   </energy>
  </scstep>
  <scstep>
   <time name="diag">    1.15    1.15</time>
   <time name="diis">    2.08    2.08</time>
   <time name="orth">    0.27    0.27</time>
   <time name="total">    4.22    4.25</time>
   <energy>
    <i name="e_fr_energy">    -76.28237102 </i>
    <i name="e_wo_entrp">    -75.90336397 </i>
    <i name="e_0_energy">    -76.09286750 </i>
   </energy>
  </scstep>
  <scstep>
   <time name="diag">    1.15    1.15</time>
   <time name="diis">    2.02    2.02</time>
   <time name="orth">    0.27    0.27</time>
   <time name="total">    4.16    4.17</time>
   <energy>
    <i name="e_fr_energy">    -76.28263224 </i>
    <i name="e_wo_entrp">    -75.90357942 </i>
    <i name="e_0_energy">    -76.09310583 </i>
   </energy>
  </scstep>
  <scstep>
   <time name="diag">    1.15    1.15</time>
   <time name="diis">    1.98    1.98</time>
   <time name="orth">    0.27    0.27</time>
   <time name="total">    4.13    4.14</time>
   <energy>
    <i name="e_fr_energy">    -76.28278575 </i>
    <i name="e_wo_entrp">    -75.90369323 </i>
    <i name="e_0_energy">    -76.09323949 </i>
   </energy>
  </scstep>
  <scstep>
   <time name="diag">    1.15    1.15</time>
   <time name="diis">    1.92    1.92</time>
   <time name="orth">    0.27    0.27</time>
   <time name="total">    4.07    4.08</time>
   <energy>
    <i name="e_fr_energy">    -76.28283591 </i>
    <i name="e_wo_entrp">    -75.90381458 </i>
    <i name="e_0_energy">    -76.09332524 </i>
   </energy>
  </scstep>
  <scstep>
   <time name="diag">    1.15    1.15</time>
   <time name="diis">    1.73    1.73</time>
   <time name="orth">    0.27    0.27</time>
   <time name="total">    3.88    3.89</time>
   <energy>
    <i name="e_fr_energy">    -76.28285110 </i>
    <i name="e_wo_entrp">    -75.90385311 </i>
    <i name="e_0_energy">    -76.09335211 </i>
   </energy>
  </scstep>
  <scstep>
   <time name="diag">    1.15    1.15</time>
   <time name="diis">    1.65    1.65</time>
   <time name="orth">    0.27    0.27</time>
   <time name="total">    3.80    3.82</time>
   <energy>
    <i name="e_fr_energy">    -76.28285708 </i>
    <i name="e_wo_entrp">    -75.90384347 </i>
    <i name="e_0_energy">    -76.09335028 </i>
   </energy>
  </scstep>
  <scstep>
   <time name="diag">    1.15    1.15</time>
   <time name="diis">    1.44    1.45</time>
   <time name="orth">    0.27    0.27</time>
   <time name="total">    3.60    3.62</time>
   <energy>
    <i name="e_fr_energy">    -76.28285877 </i>
    <i name="e_wo_entrp">    -75.90384051 </i>
    <i name="e_0_energy">    -76.09334964 </i>
   </energy>
  </scstep>
  <scstep>
   <time name="diag">    1.14    1.14</time>
   <time name="diis">    1.46    1.46</time>
   <time name="orth">    0.27    0.27</time>
   <time name="total">    3.20    3.20</time>
   <energy>
    <i name="alphaZ">    450.39332547 </i>
    <i name="ewald">  82189.84805316 </i>
    <i name="hartreedc">-119867.97105063 </i>
    <i name="XCdc">   -251.36355047 </i>
    <i name="pawpsdc">  33137.30943917 </i>
    <i name="pawaedc"> -31622.71744015 </i>
    <i name="eentropy">     -0.37901899 </i>
    <i name="bandstr">  -3332.89000551 </i>
    <i name="atom">  39221.48738872 </i>
    <i name="e_fr_energy">    -76.28285923 </i>
    <i name="e_wo_entrp">    -75.90384024 </i>
    <i name="e_0_energy">    -76.09334973 </i>
   </energy>
  </scstep>
  <structure>
   <crystal>
    <varray name="basis" >
     <v>      18.00000000       0.00000000       0.00000000 </v>
     <v>       0.00000000      18.00000000       0.00000000 </v>
     <v>       0.00000000       0.00000000      18.00000000 </v>
    </varray>
    <i name="volume">   5832.00000000 </i>
    <varray name="rec_basis" >
     <v>       0.05555556       0.00000000       0.00000000 </v>
     <v>       0.00000000       0.05555556       0.00000000 </v>
     <v>       0.00000000       0.00000000       0.05555556 </v>
    </varray>
   </crystal>
   <varray name="positions" >
    <v>       0.57435201       0.42552164       0.49970331 </v>
    <v>       0.57341599       0.72339325       0.50017918 </v>
    <v>       0.27689160       0.57365656       0.50008766 </v>
    <v>       0.42613434       0.72299209       0.50031824 </v>
    <v>       0.27684994       0.42634323       0.49967409 </v>
    <v>       0.42635918       0.27678542       0.49965726 </v>
    <v>       0.72281839       0.42592956       0.50030040 </v>
    <v>       0.57364762       0.27698190       0.50007506 </v>
    <v>       0.66902785       0.49980086       0.61859975 </v>
    <v>       0.33025951       0.49954929       0.61809608 </v>
    <v>       0.49999035       0.66921205       0.61847144 </v>
    <v>       0.49955830       0.33029721       0.61806679 </v>
    <v>       0.64894324       0.64928186       0.60803278 </v>
    <v>       0.35122149       0.64843288       0.60879913 </v>
    <v>       0.35037181       0.35040468       0.60796065 </v>
    <v>       0.64843053       0.35122789       0.60873044 </v>
    <v>       0.66688016       0.49983905       0.38114998 </v>
    <v>       0.33295205       0.50023971       0.38085620 </v>
    <v>       0.49996845       0.66701659       0.38120170 </v>
    <v>       0.50023639       0.33294270       0.38086033 </v>
    <v>       0.64862095       0.64877611       0.39370182 </v>
    <v>       0.35096436       0.64915691       0.39353781 </v>
    <v>       0.35122027       0.35122427       0.39333767 </v>
    <v>       0.64914223       0.35096439       0.39359364 </v>
    <v>       0.57643782       0.57644930       0.70906178 </v>
    <v>       0.42463676       0.57497139       0.70920030 </v>
    <v>       0.42318947       0.42317997       0.70908222 </v>
    <v>       0.57495812       0.42469592       0.70911431 </v>
    <v>       0.57522863       0.57525705       0.28860774 </v>
    <v>       0.42477701       0.57546001       0.28846759 </v>
    <v>       0.42493705       0.42492761       0.28852379 </v>
    <v>       0.57546733       0.42480429       0.28851487 </v>
    <v>       0.49993490       0.49984772       0.60353191 </v>
    <v>       0.42546492       0.42537961       0.49968113 </v>
    <v>       0.42543342       0.57444780       0.49969760 </v>
    <v>       0.50007418       0.49994808       0.39368530 </v>
    <v>       0.57420299       0.57418832       0.49972492 </v>
    <v>       0.68705886       0.56103456       0.48201868 </v>
    <v>       0.82083578       0.60684841       0.54846024 </v>
   </varray>
  </structure>
  <varray name="forces" >
   <v>       0.53442870      -0.90146632       0.05599773 </v>
   <v>       0.60916861       1.68576570      -0.02138626 </v>
   <v>      -1.55250467       0.74587717      -0.00922306 </v>
   <v>      -0.67338392       1.54756312      -0.01021807 </v>
   <v>      -1.49903747      -0.73512771      -0.04603345 </v>
   <v>      -0.66737612      -1.51439868      -0.03041130 </v>
   <v>       1.99737287      -1.75145785       0.31424369 </v>
   <v>       0.72777707      -1.45495451      -0.02154505 </v>
   <v>       0.78345877       0.05109216       0.72333909 </v>
   <v>      -0.47593560       0.00868937       0.63319615 </v>
   <v>       0.03960567       0.46696145       0.53521415 </v>
   <v>       0.01492333      -0.42544423       0.53694716 </v>
   <v>       1.71773986       1.13870158       0.20383820 </v>
   <v>      -1.12222189       1.10821317       0.31162228 </v>
   <v>      -1.11536930      -1.10764985       0.27874058 </v>
   <v>       1.03568779      -1.13620645       0.20374745 </v>
   <v>      -1.00883221      -5.60097739      -9.58685294 </v>
   <v>      -0.60056417      -0.02028451      -0.42066955 </v>
   <v>      -0.02940676       0.62277342      -0.40298094 </v>
   <v>       0.01419893      -0.56796972      -0.35611296 </v>
   <v>       0.05322036       4.26008346      -3.66624603 </v>
   <v>      -1.01468332       1.01383268      -0.67964021 </v>
   <v>      -1.04956373      -1.02465861      -0.68594138 </v>
   <v>       0.95580531      -1.04777895      -0.60673002 </v>
   <v>       0.09915931       0.15179080       1.59348477 </v>
   <v>      -0.22324885       0.18613460       1.63668534 </v>
   <v>      -0.17002003      -0.15590380       1.55715121 </v>
   <v>       0.12775050      -0.18516894       1.55360809 </v>
   <v>       0.40240861       0.46471434      -1.53888193 </v>
   <v>      -0.44815878       0.46453352      -1.50109541 </v>
   <v>      -0.45736446      -0.45249050      -1.47875190 </v>
   <v>       0.42979969      -0.48303376      -1.48043219 </v>
   <v>       0.03593796      -0.14069480       1.58158768 </v>
   <v>      -0.52040882      -0.79718987      -0.01861155 </v>
   <v>      -0.76624301       0.79747463       0.02762179 </v>
   <v>      -0.12721974      -0.17256477      -0.95027741 </v>
   <v>     -17.01532509       2.56430791       2.78645349 </v>
   <v>      22.56501021       2.96750610       9.42757304 </v>
   <v>      -1.60658559      -0.57059395      -0.44901029 </v>
  </varray>
  <energy>
   <i name="e_fr_energy">    -76.28285923 </i>
   <i name="e_wo_entrp">    -76.09334973 </i>
   <i name="e_0_energy">     -0.37901899 </i>
  </energy>
  <time name="totalsc">   78.85   79.13</time>
 </calculation>
 <calculation>
  <scstep>
   <time name="dav">    5.20    5.20</time>
   <time name="total">    5.94    5.93</time>
   <energy>
    <i name="alphaZ">    450.39332547 </i>
    <i name="ewald">  82202.42412460 </i>
    <i name="hartreedc">-119884.40598828 </i>
    <i name="XCdc">   -251.52300172 </i>
    <i name="pawpsdc">  33137.30893450 </i>
    <i name="pawaedc"> -31622.71692343 </i>
    <i name="eentropy">     -0.33166464 </i>
    <i name="bandstr">  -3330.84756012 </i>
    <i name="atom">  39221.48738872 </i>
    <i name="e_fr_energy">    -78.21136490 </i>
    <i name="e_wo_entrp">    -77.87970025 </i>
    <i name="e_0_energy">    -78.04553257 </i>
   </energy>
  </scstep>
  <scstep>
   <time name="diag">    1.14    1.14</time>
   <time name="diis">    2.74    2.73</time>
   <time name="orth">    0.27    0.27</time>
   <time name="total">    4.87    4.88</time>
   <energy>
    <i name="e_fr_energy">    -78.79043119 </i>
    <i name="e_wo_entrp">    -78.41676967 </i>
    <i name="e_0_energy">    -78.60360043 </i>
   </energy>
  </scstep>
  <scstep>
   <time name="diag">    1.14    1.14</time>
   <time name="diis">    2.74    2.74</time>
   <time name="orth">    0.27    0.27</time>
   <time name="total">    4.86    4.87</time>
   <energy>
    <i name="e_fr_energy">    -78.25973475 </i>
    <i name="e_wo_entrp">    -77.92653317 </i>
    <i name="e_0_energy">    -78.09313396 </i>
   </energy>
  </scstep>
  <scstep>
   <time name="diag">    1.15    1.15</time>
   <time name="diis">    2.74    2.74</time>
   <time name="orth">    0.26    0.27</time>
   <time name="total">    4.88    4.89</time>
   <energy>
    <i name="e_fr_energy">    -78.31485456 </i>
    <i name="e_wo_entrp">    -77.97754917 </i>
    <i name="e_0_energy">    -78.14620186 </i>
   </energy>
  </scstep>
  <scstep>
   <time name="diag">    1.15    1.15</time>
   <time name="diis">    2.77    2.77</time>
   <time name="orth">    0.26    0.27</time>
   <time name="total">    4.91    4.92</time>
   <energy>
    <i name="e_fr_energy">    -78.31063893 </i>
    <i name="e_wo_entrp">    -77.95496511 </i>
    <i name="e_0_energy">    -78.13280202 </i>
   </energy>
  </scstep>
  <scstep>
   <time name="diag">    1.14    1.14</time>
   <time name="diis">    2.75    2.75</time>
   <time name="orth">    0.27    0.27</time>
   <time name="total">    4.88    4.88</time>
   <energy>
    <i name="e_fr_energy">    -78.31039946 </i>
    <i name="e_wo_entrp">    -77.95112645 </i>
    <i name="e_0_energy">    -78.13076296 </i>
   </energy>
  </scstep>
  <scstep>
   <time name="diag">    1.14    1.15</time>
   <time name="diis">    2.74    2.73</time>
   <time name="orth">    0.26    0.27</time>
   <time name="total">    4.86    4.88</time>
   <energy>
    <i name="e_fr_energy">    -78.31032724 </i>
    <i name="e_wo_entrp">    -77.95032965 </i>
    <i name="e_0_energy">    -78.13032844 </i>
   </energy>
  </scstep>
  <scstep>
   <time name="diag">    1.16    1.15</time>
   <time name="diis">    2.75    2.75</time>
   <time name="orth">    0.27    0.27</time>
   <time name="total">    4.90    4.94</time>
   <energy>
    <i name="e_fr_energy">    -78.31038567 </i>
    <i name="e_wo_entrp">    -77.95022619 </i>
    <i name="e_0_energy">    -78.13030593 </i>
   </energy>
  </scstep>
  <scstep>
   <time name="diag">    1.15    1.15</time>
   <time name="diis">    1.94    1.94</time>
   <time name="orth">    0.27    0.27</time>
   <time name="total">    4.08    4.11</time>
   <energy>
    <i name="e_fr_energy">    -78.31050505 </i>
    <i name="e_wo_entrp">    -77.95076150 </i>
    <i name="e_0_energy">    -78.13063327 </i>
   </energy>
  </scstep>
  <scstep>
   <time name="diag">    1.15    1.15</time>
   <time name="diis">    2.00    2.00</time>
   <time name="orth">    0.27    0.27</time>
   <time name="total">    4.14    4.16</time>
   <energy>
    <i name="e_fr_energy">    -78.31068731 </i>
    <i name="e_wo_entrp">    -77.95135691 </i>
    <i name="e_0_energy">    -78.13102211 </i>
   </energy>
  </scstep>
  <scstep>
   <time name="diag">    1.15    1.15</time>
   <time name="diis">    1.94    1.93</time>
   <time name="orth">    0.27    0.27</time>
   <time name="total">    4.08    4.10</time>
   <energy>
    <i name="e_fr_energy">    -78.31083374 </i>
    <i name="e_wo_entrp">    -77.95145962 </i>
    <i name="e_0_energy">    -78.13114668 </i>
   </energy>
  </scstep>
  <scstep>
   <time name="diag">    1.15    1.15</time>
   <time name="diis">    1.91    1.91</time>
   <time name="orth">    0.27    0.27</time>
   <time name="total">    4.06    4.07</time>
   <energy>
    <i name="e_fr_energy">    -78.31089816 </i>
    <i name="e_wo_entrp">    -77.95147140 </i>
    <i name="e_0_energy">    -78.13118478 </i>
   </energy>
  </scstep>
  <scstep>
   <time name="diag">    1.15    1.15</time>
   <time name="diis">    1.91    1.91</time>
   <time name="orth">    0.27    0.27</time>
   <time name="total">    4.05    4.07</time>
   <energy>
    <i name="e_fr_energy">    -78.31092256 </i>
    <i name="e_wo_entrp">    -77.95151750 </i>
    <i name="e_0_energy">    -78.13122003 </i>
   </energy>
  </scstep>
  <scstep>
   <time name="diag">    1.14    1.14</time>
   <time name="diis">    1.72    1.73</time>
   <time name="orth">    0.27    0.27</time>
   <time name="total">    3.87    3.88</time>
   <energy>
    <i name="e_fr_energy">    -78.31092845 </i>
    <i name="e_wo_entrp">    -77.95155799 </i>
    <i name="e_0_energy">    -78.13124322 </i>
   </energy>
  </scstep>
  <scstep>
   <time name="diag">    1.15    1.15</time>
   <time name="diis">    1.49    1.49</time>
   <time name="orth">    0.27    0.27</time>
   <time name="total">    3.64    3.66</time>
   <energy>
    <i name="e_fr_energy">    -78.31093094 </i>
    <i name="e_wo_entrp">    -77.95156485 </i>
    <i name="e_0_energy">    -78.13124789 </i>
   </energy>
  </scstep>
  <scstep>
   <time name="diag">    1.15    1.15</time>
   <time name="diis">    1.50    1.49</time>
   <time name="orth">    0.27    0.27</time>
   <time name="total">    3.65    3.67</time>
   <energy>
    <i name="e_fr_energy">    -78.31093205 </i>
    <i name="e_wo_entrp">    -77.95155437 </i>
    <i name="e_0_energy">    -78.13124321 </i>
   </energy>
  </scstep>
  <scstep>
   <time name="diag">    1.14    1.15</time>
   <time name="diis">    1.35    1.35</time>
   <time name="orth">    0.27    0.27</time>
   <time name="total">    3.09    3.11</time>
   <energy>
    <i name="alphaZ">    450.39332547 </i>
    <i name="ewald">  82202.42412460 </i>
    <i name="hartreedc">-119890.02921213 </i>
    <i name="XCdc">   -251.49541021 </i>
    <i name="pawpsdc">  33106.98127845 </i>
    <i name="pawaedc"> -31591.77235476 </i>
    <i name="eentropy">     -0.35938263 </i>
    <i name="bandstr">  -3325.94068971 </i>
    <i name="atom">  39221.48738872 </i>
    <i name="e_fr_energy">    -78.31093220 </i>
    <i name="e_wo_entrp">    -77.95154957 </i>
    <i name="e_0_energy">    -78.13124088 </i>
   </energy>
  </scstep>
  <structure>
   <crystal>
    <varray name="basis" >
     <v>      18.00000000       0.00000000       0.00000000 </v>
     <v>       0.00000000      18.00000000       0.00000000 </v>
     <v>       0.00000000       0.00000000      18.00000000 </v>
    </varray>
    <i name="volume">   5832.00000000 </i>
    <varray name="rec_basis" >
     <v>       0.05555556       0.00000000       0.00000000 </v>
     <v>       0.00000000       0.05555556       0.00000000 </v>
     <v>       0.00000000       0.00000000       0.05555556 </v>
    </varray>
   </crystal>
   <varray name="positions" >
    <v>       0.57431189       0.42556068       0.49970633 </v>
    <v>       0.57337921       0.72329762       0.50018197 </v>
    <v>       0.27698394       0.57361302       0.50008766 </v>
    <v>       0.42617586       0.72290540       0.50031912 </v>
    <v>       0.27692828       0.42638457       0.49967380 </v>
    <v>       0.42639857       0.27687134       0.49965895 </v>
    <v>       0.72275192       0.42599491       0.50030339 </v>
    <v>       0.57360501       0.27706369       0.50007657 </v>
    <v>       0.66902095       0.49981847       0.61855096 </v>
    <v>       0.33029067       0.49954995       0.61805811 </v>
    <v>       0.49998591       0.66918367       0.61843763 </v>
    <v>       0.49955782       0.33032401       0.61803223 </v>
    <v>       0.64890263       0.64920166       0.60800015 </v>
    <v>       0.35128795       0.64836815       0.60878428 </v>
    <v>       0.35044037       0.35046949       0.60794854 </v>
    <v>       0.64836598       0.35129357       0.60872361 </v>
    <v>       0.66685864       0.49984880       0.38118154 </v>
    <v>       0.33298644       0.50023946       0.38088055 </v>
    <v>       0.49996318       0.66697915       0.38122718 </v>
    <v>       0.50023648       0.33297820       0.38088426 </v>
    <v>       0.64857447       0.64871144       0.39374683 </v>
    <v>       0.35102437       0.64909872       0.39357533 </v>
    <v>       0.35127996       0.35128354       0.39337435 </v>
    <v>       0.64908568       0.35102434       0.39362470 </v>
    <v>       0.57643221       0.57644232       0.70896871 </v>
    <v>       0.42464774       0.57496480       0.70910399 </v>
    <v>       0.42319517       0.42318681       0.70899102 </v>
    <v>       0.57495303       0.42469998       0.70902803 </v>
    <v>       0.57520334       0.57522837       0.28869536 </v>
    <v>       0.42480519       0.57543467       0.28855523 </v>
    <v>       0.42496361       0.42495525       0.28861170 </v>
    <v>       0.57544115       0.42482922       0.28859705 </v>
    <v>       0.49992947       0.49985247       0.60343120 </v>
    <v>       0.42550447       0.42542915       0.49968575 </v>
    <v>       0.42548280       0.57439652       0.49970127 </v>
    <v>       0.50006424       0.49995284       0.39373681 </v>
    <v>       0.57418607       0.57417306       0.49973097 </v>
    <v>       0.69120479       0.56244302       0.48414147 </v>
    <v>       0.81648480       0.60535784       0.54634720 </v>
   </varray>
  </structure>
  <varray name="forces" >
   <v>       0.58361124      -0.85481604       0.03721275 </v>
   <v>       0.61874579       1.68386294      -0.02516375 </v>
   <v>      -1.56427874       0.76147425      -0.00993763 </v>
   <v>      -0.68404784       1.55523841      -0.01007281 </v>
   <v>      -1.48670732      -0.74090918      -0.04421509 </v>
   <v>      -0.67606302      -1.52666049      -0.03112816 </v>
   <v>       1.93024087      -1.75315956       0.27441602 </v>
   <v>       0.73546185      -1.46389398      -0.02122310 </v>
   <v>       0.74705018       0.01361916       0.77398260 </v>
   <v>      -0.48761460       0.01002073       0.64487305 </v>
   <v>       0.04701141       0.47222757       0.54497276 </v>
   <v>       0.01422672      -0.43721230       0.54989643 </v>
   <v>       1.69896586       1.17299429       0.22774486 </v>
   <v>      -1.13830265       1.12109728       0.30858261 </v>
   <v>      -1.12550346      -1.11937670       0.27478155 </v>
   <v>       1.04761779      -1.14113519       0.19428941 </v>
   <v>      -0.90728975      -4.30409530      -7.42085752 </v>
   <v>      -0.60542222      -0.01820322      -0.42903419 </v>
   <v>      -0.01791845       0.62729734      -0.40698071 </v>
   <v>       0.01184009      -0.58131767      -0.36694822 </v>
   <v>       0.12102716       3.71069838      -3.23361126 </v>
   <v>      -1.03031737       1.02103508      -0.68210053 </v>
   <v>      -1.05613417      -1.03238516      -0.68945424 </v>
   <v>       0.96282608      -1.04995238      -0.60329648 </v>
   <v>       0.09139106       0.14627309       1.60610896 </v>
   <v>      -0.22016949       0.17869047       1.65479370 </v>
   <v>      -0.16374432      -0.15257203       1.57450623 </v>
   <v>       0.12088674      -0.17590082       1.56473502 </v>
   <v>       0.41077909       0.46837834      -1.54408151 </v>
   <v>      -0.45623816       0.46519306      -1.51301789 </v>
   <v>      -0.46410830      -0.46017005      -1.49520682 </v>
   <v>       0.43812130      -0.48073874      -1.48488405 </v>
   <v>       0.05486487      -0.12969181       1.61221526 </v>
   <v>      -0.54412580      -0.81042926      -0.02968072 </v>
   <v>      -0.77164445       0.82028964       0.01303896 </v>
   <v>      -0.07756417      -0.15667092      -0.94431027 </v>
   <v>     -12.77480781       1.79445425       1.76519413 </v>
   <v>      18.50041986       3.04436482       7.97650104 </v>
   <v>      -1.88308586      -0.67791827      -0.61264039 </v>
  </varray>
  <energy>
   <i name="e_fr_energy">    -78.31093220 </i>
   <i name="e_wo_entrp">    -78.13124088 </i>
   <i name="e_0_energy">     -0.35938263 </i>
  </energy>
  <time name="totalsc">   77.78   78.08</time>
 </calculation>
 <calculation>
  <scstep>
   <time name="dav">    5.20    5.21</time>
   <time name="total">    5.94    5.94</time>
   <energy>
    <i name="alphaZ">    450.39332547 </i>
    <i name="ewald">  82306.48008786 </i>
    <i name="hartreedc">-120000.41899909 </i>
    <i name="XCdc">   -251.47471108 </i>
    <i name="pawpsdc">  33106.98046090 </i>
    <i name="pawaedc"> -31591.77152701 </i>
    <i name="eentropy">     -0.29167014 </i>
    <i name="bandstr">  -3321.19170802 </i>
    <i name="atom">  39221.48738872 </i>
    <i name="e_fr_energy">    -79.80735239 </i>
    <i name="e_wo_entrp">    -79.51568225 </i>
    <i name="e_0_energy">    -79.66151732 </i>
   </energy>
  </scstep>
  <scstep>
   <time name="diag">    1.14    1.14</time>
   <time name="diis">    2.72    2.73</time>
   <time name="orth">    0.27    0.27</time>
   <time name="total">    4.86    4.88</time>
   <energy>
    <i name="e_fr_energy">    -85.06343581 </i>
    <i name="e_wo_entrp">    -84.81829297 </i>
    <i name="e_0_energy">    -84.94086439 </i>
   </energy>
  </scstep>
  <scstep>
   <time name="diag">    1.15    1.15</time>
   <time name="diis">    2.76    2.76</time>
   <time name="orth">    0.27    0.27</time>
   <time name="total">    4.90    4.92</time>
   <energy>
    <i name="e_fr_energy">    -83.48409554 </i>
    <i name="e_wo_entrp">    -83.24750738 </i>
    <i name="e_0_energy">    -83.36580146 </i>
   </energy>
  </scstep>
  <scstep>
   <time name="diag">    1.15    1.15</time>
   <time name="diis">    2.74    2.74</time>
   <time name="orth">    0.27    0.27</time>
   <time name="total">    4.88    4.90</time>
   <energy>
    <i name="e_fr_energy">    -83.54887577 </i>
    <i name="e_wo_entrp">    -83.17394434 </i>
    <i name="e_0_energy">    -83.36141006 </i>
   </energy>
  </scstep>
  <scstep>
   <time name="diag">    1.15    1.15</time>
   <time name="diis">    2.74    2.74</time>
   <time name="orth">    0.26    0.27</time>
   <time name="total">    4.87    4.90</time>
   <energy>
    <i name="e_fr_energy">    -83.34686738 </i>
    <i name="e_wo_entrp">    -83.10375273 </i>
    <i name="e_0_energy">    -83.22531006 </i>
   </energy>
  </scstep>
  <scstep>
   <time name="diag">    1.15    1.15</time>
   <time name="diis">    2.73    2.73</time>
   <time name="orth">    0.27    0.27</time>
   <time name="total">    4.86    4.87</time>
   <energy>
    <i name="e_fr_energy">    -83.32342445 </i>
    <i name="e_wo_entrp">    -83.06861881 </i>
    <i name="e_0_energy">    -83.19602163 </i>
   </energy>
  </scstep>
  <scstep>
[...]
       <r>   -2.4317    0.0000 </r>
       <r>   -2.2289    0.0000 </r>
       <r>   -2.0622    0.0000 </r>
       <r>   -1.9397    0.0000 </r>
       <r>   -1.7861    0.0000 </r>
       <r>   -1.7351    0.0000 </r>
       <r>   -1.7153    0.0000 </r>
       <r>   -1.6708    0.0000 </r>
       <r>   -1.3586    0.0000 </r>
       <r>   -0.9575    0.0000 </r>
       <r>   -0.9423    0.0000 </r>
       <r>   -0.9324    0.0000 </r>
       <r>   -0.9157    0.0000 </r>
       <r>   -0.8602    0.0000 </r>
       <r>   -0.8157    0.0000 </r>
       <r>   -0.7183    0.0000 </r>
       <r>   -0.5115    0.0000 </r>
       <r>   -0.4692    0.0000 </r>
       <r>   -0.3654    0.0000 </r>
       <r>   -0.3213    0.0000 </r>
       <r>   -0.0980    0.0000 </r>
       <r>   -0.0634    0.0000 </r>
       <r>   -0.0508    0.0000 </r>
       <r>    0.0324    0.0000 </r>
       <r>    0.0596    0.0000 </r>
       <r>    0.4342    0.0000 </r>
       <r>    0.5670    0.0000 </r>
       <r>    0.8100    0.0000 </r>
       <r>    0.8173    0.0000 </r>
       <r>    0.8306    0.0000 </r>
       <r>    0.8549    0.0000 </r>
       <r>    0.9098    0.0000 </r>
       <r>    0.9251    0.0000 </r>
       <r>    0.9719    0.0000 </r>
       <r>    1.0551    0.0000 </r>
       <r>    1.0678    0.0000 </r>
       <r>    1.1070    0.0000 </r>
       <r>    1.1754    0.0000 </r>
       <r>    1.2032    0.0000 </r>
       <r>    1.2216    0.0000 </r>
       <r>    1.3183    0.0000 </r>
       <r>    1.3477    0.0000 </r>
       <r>    1.4236    0.0000 </r>
       <r>    1.4462    0.0000 </r>
      </set>
     </set>
    </set>
   </array>
  </eigenvalues>
  <separator name="orbital magnetization" >
   <v name="MAGDIPOLOUT">      0.00000000      0.00000000      0.00000000</v>
  </separator>
  <dos>
   <i name="efermi">     -3.38340796 </i>
   <total>
    <array>
     <dimension dim="1">gridpoints</dimension>
     <dimension dim="2">spin</dimension>
     <field>energy</field>
     <field>total</field>
     <field>integrated</field>
     <set>
      <set comment="spin 1">
       <r>   -22.2805     0.0000     0.0000 </r>
       <r>   -22.1948     0.0000     0.0000 </r>
       <r>   -22.1090     0.0000     0.0000 </r>
       <r>   -22.0233     0.0000     0.0000 </r>
       <r>   -21.9375     0.0000     0.0000 </r>
       <r>   -21.8518     0.0000     0.0000 </r>
       <r>   -21.7660     0.0000     0.0000 </r>
       <r>   -21.6803     0.0000     0.0000 </r>
       <r>   -21.5945     0.0000     0.0000 </r>
       <r>   -21.5087     0.0000     0.0000 </r>
       <r>   -21.4230     0.0000     0.0000 </r>
       <r>   -21.3372     0.0000     0.0000 </r>
       <r>   -21.2515     0.0000     0.0000 </r>
       <r>   -21.1657     0.0000     0.0000 </r>
       <r>   -21.0800     0.0000     0.0000 </r>
       <r>   -20.9942     0.0000     0.0000 </r>
       <r>   -20.9085     0.0001     0.0000 </r>
       <r>   -20.8227     0.0014     0.0001 </r>
       <r>   -20.7369     0.0131     0.0013 </r>
       <r>   -20.6512     0.0877     0.0088 </r>
       <r>   -20.5654     0.4104     0.0440 </r>
       <r>   -20.4797     1.3428     0.1591 </r>
       <r>   -20.3939     3.0742     0.4228 </r>
       <r>   -20.3082     4.9259     0.8452 </r>
       <r>   -20.2224     5.5253     1.3190 </r>
       <r>   -20.1367     4.3388     1.6911 </r>
       <r>   -20.0509     2.3849     1.8956 </r>
       <r>   -19.9651     0.9174     1.9743 </r>
       <r>   -19.8794     0.2469     1.9954 </r>
       <r>   -19.7936     0.0465     1.9994 </r>
       <r>   -19.7079     0.0061     1.9999 </r>
       <r>   -19.6221     0.0006     2.0000 </r>
       <r>   -19.5364     0.0000     2.0000 </r>
       <r>   -19.4506     0.0000     2.0000 </r>
       <r>   -19.3648     0.0000     2.0000 </r>
       <r>   -19.2791     0.0000     2.0000 </r>
       <r>   -19.1933     0.0000     2.0000 </r>
       <r>   -19.1076     0.0000     2.0000 </r>
       <r>   -19.0218     0.0000     2.0000 </r>
       <r>   -18.9361     0.0000     2.0000 </r>
       <r>   -18.8503     0.0000     2.0000 </r>
       <r>   -18.7646     0.0000     2.0000 </r>
       <r>   -18.6788     0.0000     2.0000 </r>
       <r>   -18.5930     0.0000     2.0000 </r>
       <r>   -18.5073     0.0000     2.0000 </r>
       <r>   -18.4215     0.0000     2.0000 </r>
       <r>   -18.3358     0.0000     2.0000 </r>
       <r>   -18.2500     0.0000     2.0000 </r>
       <r>   -18.1643     0.0000     2.0000 </r>
       <r>   -18.0785     0.0000     2.0000 </r>
       <r>   -17.9928     0.0000     2.0000 </r>
       <r>   -17.9070     0.0000     2.0000 </r>
       <r>   -17.8212     0.0000     2.0000 </r>
       <r>   -17.7355     0.0000     2.0000 </r>
       <r>   -17.6497     0.0000     2.0000 </r>
       <r>   -17.5640     0.0000     2.0000 </r>
       <r>   -17.4782     0.0000     2.0000 </r>
       <r>   -17.3925     0.0000     2.0000 </r>
       <r>   -17.3067     0.0000     2.0000 </r>
       <r>   -17.2210     0.0000     2.0000 </r>
       <r>   -17.1352     0.0000     2.0000 </r>
       <r>   -17.0494     0.0000     2.0000 </r>
       <r>   -16.9637     0.0000     2.0000 </r>
       <r>   -16.8779     0.0000     2.0000 </r>
       <r>   -16.7922     0.0000     2.0000 </r>
       <r>   -16.7064     0.0000     2.0000 </r>
       <r>   -16.6207     0.0000     2.0000 </r>
       <r>   -16.5349     0.0000     2.0000 </r>
       <r>   -16.4492     0.0000     2.0000 </r>
       <r>   -16.3634     0.0000     2.0000 </r>
       <r>   -16.2776     0.0000     2.0000 </r>
       <r>   -16.1919     0.0000     2.0000 </r>
       <r>   -16.1061     0.0000     2.0000 </r>
       <r>   -16.0204     0.0000     2.0000 </r>
       <r>   -15.9346     0.0000     2.0000 </r>
       <r>   -15.8489     0.0000     2.0000 </r>
       <r>   -15.7631     0.0000     2.0000 </r>
       <r>   -15.6773     0.0000     2.0000 </r>
       <r>   -15.5916     0.0000     2.0000 </r>
       <r>   -15.5058     0.0000     2.0000 </r>
       <r>   -15.4201     0.0000     2.0000 </r>
       <r>   -15.3343     0.0000     2.0000 </r>
       <r>   -15.2486     0.0000     2.0000 </r>
       <r>   -15.1628     0.0000     2.0000 </r>
       <r>   -15.0771     0.0000     2.0000 </r>
       <r>   -14.9913     0.0000     2.0000 </r>
       <r>   -14.9055     0.0000     2.0000 </r>
       <r>   -14.8198     0.0000     2.0000 </r>
       <r>   -14.7340     0.0000     2.0000 </r>
       <r>   -14.6483     0.0000     2.0000 </r>
       <r>   -14.5625     0.0000     2.0000 </r>
       <r>   -14.4768     0.0000     2.0000 </r>
       <r>   -14.3910     0.0000     2.0000 </r>
       <r>   -14.3053     0.0000     2.0000 </r>
       <r>   -14.2195     0.0000     2.0000 </r>
       <r>   -14.1337     0.0000     2.0000 </r>
       <r>   -14.0480     0.0000     2.0000 </r>
       <r>   -13.9622     0.0000     2.0000 </r>
       <r>   -13.8765     0.0000     2.0000 </r>
       <r>   -13.7907     0.0000     2.0000 </r>
       <r>   -13.7050     0.0000     2.0000 </r>
       <r>   -13.6192     0.0000     2.0000 </r>
       <r>   -13.5335     0.0000     2.0000 </r>
       <r>   -13.4477     0.0000     2.0000 </r>
       <r>   -13.3619     0.0000     2.0000 </r>
       <r>   -13.2762     0.0000     2.0000 </r>
       <r>   -13.1904     0.0000     2.0000 </r>
       <r>   -13.1047     0.0000     2.0000 </r>
       <r>   -13.0189     0.0000     2.0000 </r>
       <r>   -12.9332     0.0000     2.0000 </r>
       <r>   -12.8474     0.0000     2.0000 </r>
       <r>   -12.7616     0.0000     2.0000 </r>
       <r>   -12.6759     0.0000     2.0000 </r>
       <r>   -12.5901     0.0000     2.0000 </r>
       <r>   -12.5044     0.0000     2.0000 </r>
       <r>   -12.4186     0.0000     2.0000 </r>
       <r>   -12.3329     0.0000     2.0000 </r>
       <r>   -12.2471     0.0000     2.0000 </r>
       <r>   -12.1614     0.0000     2.0000 </r>
       <r>   -12.0756     0.0000     2.0000 </r>
       <r>   -11.9898     0.0000     2.0000 </r>
       <r>   -11.9041     0.0000     2.0000 </r>
       <r>   -11.8183     0.0000     2.0000 </r>
       <r>   -11.7326     0.0000     2.0000 </r>
       <r>   -11.6468     0.0000     2.0000 </r>
       <r>   -11.5611     0.0000     2.0000 </r>
       <r>   -11.4753     0.0000     2.0000 </r>
       <r>   -11.3896     0.0001     2.0000 </r>
       <r>   -11.3038     0.0009     2.0001 </r>
       <r>   -11.2180     0.0093     2.0009 </r>
       <r>   -11.1323     0.0657     2.0065 </r>
       <r>   -11.0465     0.3262     2.0345 </r>
       <r>   -10.9608     1.1320     2.1316 </r>
       <r>   -10.8750     2.7486     2.3673 </r>
       <r>   -10.7893     4.6709     2.7678 </r>
       <r>   -10.7035     5.5565     3.2443 </r>
       <r>   -10.6178     4.6273     3.6411 </r>
       <r>   -10.5320     2.6975     3.8725 </r>
       <r>   -10.4462     1.1006     3.9669 </r>
       <r>   -10.3605     0.3142     3.9938 </r>
       <r>   -10.2747     0.0640     3.9993 </r>
       <r>   -10.1890     0.0222     4.0012 </r>
       <r>   -10.1032     0.0969     4.0095 </r>
       <r>   -10.0175     0.4847     4.0511 </r>
       <r>    -9.9317     1.7412     4.2004 </r>
       <r>    -9.8460     4.4852     4.5850 </r>
       <r>    -9.7602     8.3903     5.3046 </r>
       <r>    -9.6744    11.7238     6.3099 </r>
       <r>    -9.5887    13.0661     7.4304 </r>
       <r>    -9.5029    13.2679     8.5682 </r>
       <r>    -9.4172    14.5700     9.8177 </r>
       <r>    -9.3314    18.4958    11.4038 </r>
       <r>    -9.2457    25.2532    13.5694 </r>
       <r>    -9.1599    33.7436    16.4631 </r>
       <r>    -9.0741    41.6255    20.0328 </r>
       <r>    -8.9884    47.7805    24.1302 </r>
       <r>    -8.9026    55.4432    28.8848 </r>
       <r>    -8.8169    69.2990    34.8276 </r>
       <r>    -8.7311    89.0859    42.4672 </r>
       <r>    -8.6454   109.0247    51.8167 </r>
       <r>    -8.5596   121.7866    62.2607 </r>
       <r>    -8.4739   122.1590    72.7365 </r>
       <r>    -8.3881   111.4276    82.2921 </r>
       <r>    -8.3023    97.7378    90.6737 </r>
       <r>    -8.2166    89.4350    98.3432 </r>
       <r>    -8.1308    90.3757   106.0935 </r>
       <r>    -8.0451    99.8975   114.6603 </r>
       <r>    -7.9593   113.7876   124.4182 </r>
       <r>    -7.8736   127.4853   135.3508 </r>
       <r>    -7.7878   138.2711   147.2084 </r>
       <r>    -7.7021   144.3969   159.5913 </r>
       <r>    -7.6163   146.6949   172.1712 </r>
       <r>    -7.5305   148.6821   184.9216 </r>
       <r>    -7.4448   150.5561   197.8326 </r>
       <r>    -7.3590   147.5661   210.4873 </r>
       <r>    -7.2733   135.7113   222.1253 </r>
       <r>    -7.1875   115.6349   232.0417 </r>
       <r>    -7.1018    94.6311   240.1569 </r>
       <r>    -7.0160    85.3264   247.4741 </r>
       <r>    -6.9303    95.1570   255.6344 </r>
       <r>    -6.8445   119.4445   265.8774 </r>
       <r>    -6.7587   149.1655   278.6692 </r>
       <r>    -6.6730   176.2876   293.7869 </r>
       <r>    -6.5872   189.5214   310.0395 </r>
       <r>    -6.5015   180.4305   325.5125 </r>
       <r>    -6.4157   156.1297   338.9015 </r>
       <r>    -6.3300   132.0467   350.2253 </r>
       <r>    -6.2442   113.7521   359.9802 </r>
       <r>    -6.1585    96.5885   368.2632 </r>
       <r>    -6.0727    77.9209   374.9454 </r>
       <r>    -5.9869    61.1196   380.1868 </r>
       <r>    -5.9012    50.6373   384.5292 </r>
       <r>    -5.8154    46.7727   388.5402 </r>
       <r>    -5.7297    44.6314   392.3676 </r>
       <r>    -5.6439    38.6244   395.6799 </r>
       <r>    -5.5582    28.0229   398.0830 </r>
       <r>    -5.4724    17.2105   399.5589 </r>
       <r>    -5.3866    10.3863   400.4496 </r>
       <r>    -5.3009     7.3659   401.0813 </r>
       <r>    -5.2151     5.4354   401.5474 </r>
       <r>    -5.1294     3.3218   401.8323 </r>
       <r>    -5.0436     1.6984   401.9779 </r>
       <r>    -4.9579     1.4211   402.0998 </r>
       <r>    -4.8721     2.7832   402.3385 </r>
       <r>    -4.7864     5.6066   402.8193 </r>
       <r>    -4.7006     9.3349   403.6198 </r>
       <r>    -4.6148    13.4137   404.7701 </r>
       <r>    -4.5291    17.3929   406.2616 </r>
       <r>    -4.4433    20.6171   408.0297 </r>
       <r>    -4.3576    22.3770   409.9486 </r>
       <r>    -4.2718    22.2280   411.8548 </r>
       <r>    -4.1861    20.4032   413.6045 </r>
       <r>    -4.1003    17.7568   415.1272 </r>
       <r>    -4.0146    14.5218   416.3726 </r>
       <r>    -3.9288    10.5209   417.2748 </r>
       <r>    -3.8430     7.0444   417.8789 </r>
       <r>    -3.7573     6.4380   418.4310 </r>
       <r>    -3.6715     9.4906   419.2449 </r>
       <r>    -3.5858    14.2277   420.4650 </r>
       <r>    -3.5000    17.5511   421.9701 </r>
       <r>    -3.4143    17.7738   423.4943 </r>
       <r>    -3.3285    15.3771   424.8130 </r>
       <r>    -3.2428    12.1016   425.8508 </r>
       <r>    -3.1570     9.4019   426.6570 </r>
       <r>    -3.0712     7.3143   427.2843 </r>
       <r>    -2.9855     5.5744   427.7623 </r>
       <r>    -2.8997     5.5056   428.2344 </r>
       <r>    -2.8140     9.3796   429.0388 </r>
       <r>    -2.7282    17.5685   430.5454 </r>
       <r>    -2.6425    26.6787   432.8333 </r>
       <r>    -2.5567    31.6756   435.5496 </r>
       <r>    -2.4709    30.3854   438.1553 </r>
       <r>    -2.3852    24.8466   440.2861 </r>
       <r>    -2.2994    18.7568   441.8946 </r>
       <r>    -2.2137    14.7566   443.1601 </r>
       <r>    -2.1279    13.4241   444.3112 </r>
       <r>    -2.0422    14.0056   445.5123 </r>
       <r>    -1.9564    15.8706   446.8733 </r>
       <r>    -1.8707    19.0246   448.5048 </r>
       <r>    -1.7849    22.6940   450.4509 </r>
       <r>    -1.6991    24.0182   452.5106 </r>
       <r>    -1.6134    20.6513   454.2816 </r>
       <r>    -1.5276    14.4703   455.5225 </r>
       <r>    -1.4419     9.5956   456.3454 </r>
       <r>    -1.3561     7.4067   456.9806 </r>
       <r>    -1.2704     6.5381   457.5412 </r>
       <r>    -1.1846     6.9717   458.1391 </r>
       <r>    -1.0989    11.1801   459.0979 </r>
       <r>    -1.0131    20.2627   460.8355 </r>
       <r>    -0.9273    30.1664   463.4224 </r>
       <r>    -0.8416    34.2766   466.3619 </r>
       <r>    -0.7558    30.5483   468.9816 </r>
       <r>    -0.6701    23.5978   471.0052 </r>
       <r>    -0.5843    19.2812   472.6587 </r>
       <r>    -0.4986    19.2456   474.3091 </r>
       <r>    -0.4128    20.8148   476.0941 </r>
       <r>    -0.3271    21.0947   477.9031 </r>
       <r>    -0.2413    20.5779   479.6678 </r>
       <r>    -0.1555    21.9778   481.5525 </r>
       <r>    -0.0698    25.3665   483.7278 </r>
       <r>     0.0160    26.6377   486.0122 </r>
       <r>     0.1017    22.5367   487.9448 </r>
       <r>     0.1875    15.0780   489.2378 </r>
       <r>     0.2732     9.1891   490.0259 </r>
       <r>     0.3590     7.5958   490.6772 </r>
       <r>     0.4447     9.1976   491.4660 </r>
       <r>     0.5305    11.5920   492.4601 </r>
       <r>     0.6163    14.5052   493.7040 </r>
       <r>     0.7020    20.3095   495.4456 </r>
       <r>     0.7878    30.1446   498.0307 </r>
       <r>     0.8735    40.4906   501.5030 </r>
       <r>     0.9593    46.4722   505.4883 </r>
       <r>     1.0450    47.3956   509.5527 </r>
       <r>     1.1308    45.8054   513.4808 </r>
       <r>     1.2166    43.1944   517.1850 </r>
       <r>     1.3023    39.3109   520.5561 </r>
       <r>     1.3881    33.4955   523.4285 </r>
       <r>     1.4738    25.3960   525.6064 </r>
       <r>     1.5596    16.0359   526.9816 </r>
       <r>     1.6453     7.9386   527.6623 </r>
       <r>     1.7311     2.9525   527.9155 </r>
       <r>     1.8168     0.8033   527.9844 </r>
       <r>     1.9026     0.1573   527.9979 </r>
       <r>     1.9884     0.0220   527.9998 </r>
       <r>     2.0741     0.0022   528.0000 </r>
       <r>     2.1599     0.0002   528.0000 </r>
       <r>     2.2456     0.0000   528.0000 </r>
       <r>     2.3314     0.0000   528.0000 </r>
       <r>     2.4171     0.0000   528.0000 </r>
       <r>     2.5029     0.0000   528.0000 </r>
       <r>     2.5886     0.0000   528.0000 </r>
       <r>     2.6744     0.0000   528.0000 </r>
       <r>     2.7602     0.0000   528.0000 </r>
       <r>     2.8459     0.0000   528.0000 </r>
       <r>     2.9317     0.0000   528.0000 </r>
       <r>     3.0174     0.0000   528.0000 </r>
       <r>     3.1032     0.0000   528.0000 </r>
       <r>     3.1889     0.0000   528.0000 </r>
       <r>     3.2747     0.0000   528.0000 </r>
       <r>     3.3604     0.0000   528.0000 </r>
       <r>     3.4462     0.0000   528.0000 </r>
      </set>
     </set>
    </array>
   </total>
  </dos>
 </calculation>
 <structure name="finalpos" >
  <crystal>
   <varray name="basis" >
    <v>      18.00000000       0.00000000       0.00000000 </v>
    <v>       0.00000000      18.00000000       0.00000000 </v>
    <v>       0.00000000       0.00000000      18.00000000 </v>
   </varray>
   <i name="volume">   5832.00000000 </i>
   <varray name="rec_basis" >
    <v>       0.05555556       0.00000000       0.00000000 </v>
    <v>       0.00000000       0.05555556       0.00000000 </v>
    <v>       0.00000000       0.00000000       0.05555556 </v>
   </varray>
  </crystal>
  <varray name="positions" >
   <v>       0.58292814       0.42513326       0.50109314 </v>
   <v>       0.56818289       0.74576119       0.50385590 </v>
   <v>       0.26190435       0.57420257       0.49772285 </v>
   <v>       0.41221966       0.73635404       0.50155984 </v>
   <v>       0.26699598       0.41535668       0.49612359 </v>
   <v>       0.42454325       0.26255255       0.49723203 </v>
   <v>       0.74622795       0.42545829       0.50357757 </v>
   <v>       0.58085580       0.26561578       0.49969347 </v>
   <v>       0.66203697       0.50464647       0.62098481 </v>
   <v>       0.32989225       0.49562277       0.61813373 </v>
   <v>       0.49239208       0.67048388       0.62225086 </v>
   <v>       0.50070687       0.33287940       0.61817554 </v>
   <v>       0.65121024       0.66578044       0.61412895 </v>
   <v>       0.33498745       0.65352491       0.61364618 </v>
   <v>       0.34236930       0.33771445       0.61087312 </v>
   <v>       0.65960670       0.34581119       0.61053310 </v>
   <v>       0.66565473       0.50657948       0.38500591 </v>
   <v>       0.33392193       0.49799880       0.37789475 </v>
   <v>       0.49597766       0.67224936       0.38219673 </v>
   <v>       0.50448347       0.33477606       0.37979152 </v>
   <v>       0.65389116       0.66753823       0.39432474 </v>
   <v>       0.33844088       0.65587321       0.38571569 </v>
   <v>       0.34636724       0.34008741       0.38239704 </v>
   <v>       0.66296440       0.34734016       0.39259255 </v>
   <v>       0.57384212       0.58378911       0.72603909 </v>
   <v>       0.41450814       0.57732515       0.72636325 </v>
   <v>       0.41798003       0.41765252       0.72436002 </v>
   <v>       0.57722397       0.42234853       0.72354636 </v>
   <v>       0.58034397       0.58736703       0.27877632 </v>
   <v>       0.42127133       0.58180049       0.27385078 </v>
   <v>       0.42529550       0.42219655       0.27268607 </v>
   <v>       0.58436472       0.42603732       0.27848112 </v>
   <v>       0.49703553       0.50135073       0.61515066 </v>
   <v>       0.42273870       0.41933211       0.49871116 </v>
   <v>       0.41784599       0.57926049       0.50013652 </v>
   <v>       0.50077712       0.50321031       0.38603020 </v>
   <v>       0.57607812       0.58696587       0.50272880 </v>
   <v>       0.73145804       0.58479889       0.50451435 </v>
   <v>       0.82136965       0.51863450       0.50148549 </v>
  </varray>
 </structure>
</modeling>
