  38  38   0   0
  0.1534737E+03  0.1800000E-08  0.1800000E-08  0.1800000E-08  0.1000000E-15
  1.000000000000000E-004
  CAR 
 Pt cube particle                        
      2.81019403    -13.11096093  301     -3.34027860      1.00000000
    -13.111  0.0000E+00  0.0000E+00
    -13.058  0.0000E+00  0.0000E+00
    -13.005  0.0000E+00  0.0000E+00
    -12.952  0.0000E+00  0.0000E+00
    -12.899  0.0000E+00  0.0000E+00
    -12.846  0.0000E+00  0.0000E+00
    -12.793  0.0000E+00  0.0000E+00
    -12.739  0.0000E+00  0.0000E+00
    -12.686  0.0000E+00  0.0000E+00
    -12.633  0.0000E+00  0.0000E+00
    -12.580  0.0000E+00  0.0000E+00
    -12.527  0.0000E+00  0.0000E+00
    -12.474  0.0000E+00  0.0000E+00
    -12.421  0.0000E+00  0.0000E+00
    -12.368  0.0000E+00  0.0000E+00
    -12.315  0.0000E+00  0.0000E+00
    -12.262  0.3347E-16  0.1776E-17
    -12.209  0.5941E-15  0.3331E-16
    -12.156  0.1066E-13  0.5991E-15
    -12.103  0.1657E-12  0.9391E-14
    -12.050  0.2239E-11  0.1282E-12
    -11.996  0.2631E-10  0.1525E-11
    -11.943  0.2689E-09  0.1580E-10
    -11.890  0.2391E-08  0.1427E-09
    -11.837  0.1849E-07  0.1124E-08
    -11.784  0.1244E-06  0.7724E-08
    -11.731  0.7277E-06  0.4634E-07
    -11.678  0.3704E-05  0.2429E-06
    -11.625  0.1640E-04  0.1113E-05
    -11.572  0.6316E-04  0.4465E-05
    -11.519  0.2116E-03  0.1570E-04
    -11.466  0.6170E-03  0.4844E-04
    -11.413  0.1565E-02  0.1315E-03
    -11.360  0.3453E-02  0.3147E-03
    -11.307  0.6629E-02  0.6665E-03
    -11.253  0.1107E-01  0.1254E-02
    -11.200  0.1609E-01  0.2108E-02
    -11.147  0.2034E-01  0.3188E-02
    -11.094  0.2238E-01  0.4376E-02
    -11.041  0.2142E-01  0.5513E-02
    -10.988  0.1784E-01  0.6459E-02
    -10.935  0.1293E-01  0.7146E-02
    -10.882  0.8151E-02  0.7578E-02
    -10.829  0.4471E-02  0.7816E-02
    -10.776  0.2134E-02  0.7929E-02
    -10.723  0.8869E-03  0.7976E-02
    -10.670  0.3248E-03  0.7993E-02
    -10.617  0.1219E-03  0.8000E-02
    -10.564  0.1123E-03  0.8005E-02
    -10.511  0.3036E-03  0.8022E-02
    -10.457  0.9182E-03  0.8070E-02
    -10.404  0.2498E-02  0.8203E-02
    -10.351  0.6016E-02  0.8522E-02
    -10.298  0.1284E-01  0.9204E-02
    -10.245  0.2436E-01  0.1050E-01
    -10.192  0.4118E-01  0.1268E-01
    -10.139  0.6226E-01  0.1599E-01
    -10.086  0.8478E-01  0.2049E-01
    -10.033  0.1050E+00  0.2606E-01
     -9.980  0.1204E+00  0.3245E-01
     -9.927  0.1305E+00  0.3938E-01
     -9.874  0.1375E+00  0.4668E-01
     -9.821  0.1438E+00  0.5431E-01
     -9.768  0.1504E+00  0.6229E-01
     -9.714  0.1558E+00  0.7056E-01
     -9.661  0.1573E+00  0.7891E-01
     -9.608  0.1520E+00  0.8697E-01
     -9.555  0.1384E+00  0.9432E-01
     -9.502  0.1180E+00  0.1006E+00
     -9.449  0.9561E-01  0.1057E+00
     -9.396  0.7800E-01  0.1098E+00
     -9.343  0.7138E-01  0.1136E+00
     -9.290  0.7834E-01  0.1177E+00
     -9.237  0.9593E-01  0.1228E+00
     -9.184  0.1163E+00  0.1290E+00
     -9.131  0.1298E+00  0.1359E+00
     -9.078  0.1300E+00  0.1428E+00
     -9.025  0.1169E+00  0.1490E+00
     -8.971  0.9745E-01  0.1542E+00
     -8.918  0.8172E-01  0.1585E+00
     -8.865  0.7859E-01  0.1627E+00
     -8.812  0.9152E-01  0.1675E+00
     -8.759  0.1173E+00  0.1738E+00
     -8.706  0.1477E+00  0.1816E+00
     -8.653  0.1740E+00  0.1908E+00
     -8.600  0.1908E+00  0.2010E+00
     -8.547  0.1975E+00  0.2114E+00
     -8.494  0.1960E+00  0.2218E+00
     -8.441  0.1872E+00  0.2318E+00
     -8.388  0.1705E+00  0.2408E+00
     -8.335  0.1452E+00  0.2485E+00
     -8.282  0.1135E+00  0.2545E+00
     -8.228  0.8101E-01  0.2588E+00
     -8.175  0.5408E-01  0.2617E+00
     -8.122  0.3788E-01  0.2637E+00
     -8.069  0.3488E-01  0.2656E+00
     -8.016  0.4479E-01  0.2679E+00
     -7.963  0.6481E-01  0.2714E+00
     -7.910  0.8981E-01  0.2762E+00
     -7.857  0.1132E+00  0.2822E+00
     -7.804  0.1286E+00  0.2890E+00
     -7.751  0.1323E+00  0.2960E+00
     -7.698  0.1239E+00  0.3026E+00
     -7.645  0.1061E+00  0.3082E+00
     -7.592  0.8353E-01  0.3126E+00
     -7.539  0.6110E-01  0.3159E+00
     -7.485  0.4351E-01  0.3182E+00
     -7.432  0.3439E-01  0.3200E+00
     -7.379  0.3600E-01  0.3219E+00
     -7.326  0.4903E-01  0.3245E+00
     -7.273  0.7274E-01  0.3284E+00
     -7.220  0.1055E+00  0.3340E+00
     -7.167  0.1457E+00  0.3417E+00
     -7.114  0.1916E+00  0.3519E+00
     -7.061  0.2410E+00  0.3647E+00
     -7.008  0.2891E+00  0.3800E+00
     -6.955  0.3301E+00  0.3975E+00
     -6.902  0.3597E+00  0.4166E+00
     -6.849  0.3781E+00  0.4367E+00
     -6.796  0.3895E+00  0.4574E+00
     -6.742  0.3986E+00  0.4785E+00
     -6.689  0.4078E+00  0.5002E+00
     -6.636  0.4169E+00  0.5223E+00
     -6.583  0.4246E+00  0.5448E+00
     -6.530  0.4296E+00  0.5676E+00
     -6.477  0.4310E+00  0.5905E+00
     -6.424  0.4302E+00  0.6133E+00
     -6.371  0.4323E+00  0.6363E+00
     -6.318  0.4450E+00  0.6599E+00
     -6.265  0.4752E+00  0.6851E+00
     -6.212  0.5238E+00  0.7129E+00
     -6.159  0.5833E+00  0.7439E+00
     -6.106  0.6395E+00  0.7778E+00
     -6.053  0.6770E+00  0.8137E+00
     -6.000  0.6861E+00  0.8501E+00
     -5.946  0.6660E+00  0.8855E+00
     -5.893  0.6250E+00  0.9186E+00
     -5.840  0.5768E+00  0.9493E+00
     -5.787  0.5380E+00  0.9778E+00
     -5.734  0.5251E+00  0.1006E+01
     -5.681  0.5496E+00  0.1035E+01
     -5.628  0.6143E+00  0.1067E+01
     -5.575  0.7117E+00  0.1105E+01
     -5.522  0.8270E+00  0.1149E+01
     -5.469  0.9429E+00  0.1199E+01
     -5.416  0.1041E+01  0.1254E+01
     -5.363  0.1101E+01  0.1313E+01
     -5.310  0.1104E+01  0.1371E+01
     -5.257  0.1040E+01  0.1427E+01
     -5.203  0.9116E+00  0.1475E+01
     -5.150  0.7413E+00  0.1514E+01
     -5.097  0.5595E+00  0.1544E+01
     -5.044  0.3945E+00  0.1565E+01
     -4.991  0.2642E+00  0.1579E+01
     -4.938  0.1753E+00  0.1588E+01
     -4.885  0.1256E+00  0.1595E+01
     -4.832  0.1078E+00  0.1601E+01
     -4.779  0.1121E+00  0.1607E+01
     -4.726  0.1269E+00  0.1613E+01
     -4.673  0.1401E+00  0.1621E+01
     -4.620  0.1428E+00  0.1628E+01
     -4.567  0.1316E+00  0.1635E+01
     -4.514  0.1099E+00  0.1641E+01
     -4.460  0.8458E-01  0.1646E+01
     -4.407  0.6193E-01  0.1649E+01
     -4.354  0.4461E-01  0.1651E+01
     -4.301  0.3206E-01  0.1653E+01
     -4.248  0.2258E-01  0.1654E+01
     -4.195  0.1504E-01  0.1655E+01
     -4.142  0.9159E-02  0.1656E+01
     -4.089  0.4981E-02  0.1656E+01
     -4.036  0.2389E-02  0.1656E+01
     -3.983  0.1007E-02  0.1656E+01
     -3.930  0.3861E-03  0.1656E+01
     -3.877  0.1952E-03  0.1656E+01
     -3.824  0.3185E-03  0.1656E+01
     -3.771  0.9221E-03  0.1656E+01
     -3.717  0.2547E-02  0.1656E+01
     -3.664  0.6172E-02  0.1657E+01
     -3.611  0.1304E-01  0.1657E+01
     -3.558  0.2402E-01  0.1658E+01
     -3.505  0.3875E-01  0.1661E+01
     -3.452  0.5505E-01  0.1663E+01
     -3.399  0.6988E-01  0.1667E+01
     -3.346  0.8140E-01  0.1672E+01
     -3.293  0.9103E-01  0.1676E+01
     -3.240  0.1030E+00  0.1682E+01
     -3.187  0.1213E+00  0.1688E+01
     -3.134  0.1457E+00  0.1696E+01
     -3.081  0.1703E+00  0.1705E+01
     -3.028  0.1858E+00  0.1715E+01
     -2.974  0.1848E+00  0.1725E+01
     -2.921  0.1655E+00  0.1733E+01
     -2.868  0.1326E+00  0.1740E+01
     -2.815  0.9469E-01  0.1746E+01
     -2.762  0.6007E-01  0.1749E+01
     -2.709  0.3375E-01  0.1751E+01
     -2.656  0.1675E-01  0.1751E+01
     -2.603  0.7336E-02  0.1752E+01
     -2.550  0.2862E-02  0.1752E+01
     -2.497  0.1130E-02  0.1752E+01
     -2.444  0.8890E-03  0.1752E+01
     -2.391  0.1860E-02  0.1752E+01
     -2.338  0.4594E-02  0.1752E+01
     -2.285  0.1022E-01  0.1753E+01
     -2.232  0.1992E-01  0.1754E+01
     -2.178  0.3397E-01  0.1756E+01
     -2.125  0.5091E-01  0.1758E+01
     -2.072  0.6743E-01  0.1762E+01
     -2.019  0.7976E-01  0.1766E+01
     -1.966  0.8571E-01  0.1771E+01
     -1.913  0.8572E-01  0.1775E+01
     -1.860  0.8221E-01  0.1780E+01
     -1.807  0.7750E-01  0.1784E+01
     -1.754  0.7239E-01  0.1788E+01
     -1.701  0.6636E-01  0.1791E+01
     -1.648  0.5930E-01  0.1794E+01
     -1.595  0.5307E-01  0.1797E+01
     -1.542  0.5154E-01  0.1800E+01
     -1.489  0.5887E-01  0.1803E+01
     -1.435  0.7696E-01  0.1807E+01
     -1.382  0.1035E+00  0.1813E+01
     -1.329  0.1318E+00  0.1820E+01
     -1.276  0.1532E+00  0.1828E+01
     -1.223  0.1607E+00  0.1836E+01
     -1.170  0.1515E+00  0.1844E+01
     -1.117  0.1283E+00  0.1851E+01
     -1.064  0.9746E-01  0.1856E+01
     -1.011  0.6632E-01  0.1860E+01
     -0.958  0.4056E-01  0.1862E+01
     -0.905  0.2296E-01  0.1863E+01
     -0.852  0.1388E-01  0.1864E+01
     -0.799  0.1260E-01  0.1865E+01
     -0.746  0.1824E-01  0.1866E+01
     -0.692  0.2984E-01  0.1867E+01
     -0.639  0.4563E-01  0.1870E+01
     -0.586  0.6271E-01  0.1873E+01
     -0.533  0.7807E-01  0.1877E+01
     -0.480  0.9026E-01  0.1882E+01
     -0.427  0.1003E+00  0.1887E+01
     -0.374  0.1103E+00  0.1893E+01
     -0.321  0.1210E+00  0.1899E+01
     -0.268  0.1296E+00  0.1906E+01
     -0.215  0.1317E+00  0.1913E+01
     -0.162  0.1235E+00  0.1920E+01
     -0.109  0.1051E+00  0.1925E+01
     -0.056  0.8028E-01  0.1930E+01
     -0.003  0.5463E-01  0.1933E+01
      0.051  0.3298E-01  0.1934E+01
      0.104  0.1764E-01  0.1935E+01
      0.157  0.8497E-02  0.1936E+01
      0.210  0.4244E-02  0.1936E+01
      0.263  0.3746E-02  0.1936E+01
      0.316  0.6972E-02  0.1937E+01
      0.369  0.1517E-01  0.1937E+01
      0.422  0.3023E-01  0.1939E+01
      0.475  0.5321E-01  0.1942E+01
      0.528  0.8260E-01  0.1946E+01
      0.581  0.1136E+00  0.1952E+01
      0.634  0.1391E+00  0.1960E+01
      0.687  0.1528E+00  0.1968E+01
      0.740  0.1515E+00  0.1976E+01
      0.794  0.1365E+00  0.1983E+01
      0.847  0.1120E+00  0.1989E+01
      0.900  0.8368E-01  0.1993E+01
      0.953  0.5670E-01  0.1996E+01
      1.006  0.3462E-01  0.1998E+01
      1.059  0.1892E-01  0.1999E+01
      1.112  0.9190E-02  0.2000E+01
      1.165  0.3947E-02  0.2000E+01
      1.218  0.1492E-02  0.2000E+01
      1.271  0.4952E-03  0.2000E+01
      1.324  0.1439E-03  0.2000E+01
      1.377  0.3653E-04  0.2000E+01
      1.430  0.8098E-05  0.2000E+01
      1.483  0.1566E-05  0.2000E+01
      1.537  0.2640E-06  0.2000E+01
      1.590  0.3879E-07  0.2000E+01
      1.643  0.4964E-08  0.2000E+01
      1.696  0.5532E-09  0.2000E+01
      1.749  0.5368E-10  0.2000E+01
      1.802  0.4534E-11  0.2000E+01
      1.855  0.3333E-12  0.2000E+01
      1.908  0.2130E-13  0.2000E+01
      1.961  0.1188E-14  0.2000E+01
      2.014  0.6694E-16  0.2000E+01
      2.067  0.0000E+00  0.2000E+01
      2.120  0.0000E+00  0.2000E+01
      2.173  0.0000E+00  0.2000E+01
      2.226  0.0000E+00  0.2000E+01
      2.279  0.0000E+00  0.2000E+01
      2.333  0.0000E+00  0.2000E+01
      2.386  0.0000E+00  0.2000E+01
      2.439  0.0000E+00  0.2000E+01
      2.492  0.0000E+00  0.2000E+01
      2.545  0.0000E+00  0.2000E+01
      2.598  0.0000E+00  0.2000E+01
      2.651  0.0000E+00  0.2000E+01
      2.704  0.0000E+00  0.2000E+01
      2.757  0.0000E+00  0.2000E+01
      2.810  0.0000E+00  0.2000E+01
