   38   38  250    1
  0.1534737E+03  0.1800000E-08  0.1800000E-08  0.1800000E-08  0.1000000E-15
  1.000000000000000E-004
  CAR 
 Pt cube particle                        
  418    1  250
 
  0.0000000E+00  0.0000000E+00  0.0000000E+00  0.1000000E+01
   1      -11.110961
   2      -10.106145
   3      -10.016221
   4      -10.004516
   5      -10.004187
   6       -9.895935
   7       -9.772807
   8       -9.765963
   9       -9.765937
  10       -9.655845
  11       -9.643998
  12       -9.562641
  13       -9.550265
  14       -9.549571
  15       -9.168496
  16       -9.168438
  17       -9.162911
  18       -9.099787
  19       -9.099218
  20       -9.080034
  21       -8.683173
  22       -8.681640
  23       -8.681181
  24       -8.676202
  25       -8.660515
  26       -8.660160
  27       -8.527869
  28       -8.497550
  29       -8.429383
  30       -8.421465
  31       -8.378855
  32       -8.378509
  33       -8.370574
  34       -7.858761
  35       -7.858704
  36       -7.856969
  37       -7.821198
  38       -7.722338
  39       -7.699953
  40       -7.633082
  41       -7.191511
  42       -7.184469
  43       -7.184316
  44       -7.099809
  45       -6.978780
  46       -6.975998
  47       -6.975758
  48       -6.965481
  49       -6.963731
  50       -6.957897
  51       -6.957714
  52       -6.953628
  53       -6.905062
  54       -6.902172
  55       -6.901998
  56       -6.787865
  57       -6.787293
  58       -6.785811
  59       -6.734403
  60       -6.721305
  61       -6.716749
  62       -6.710171
  63       -6.698699
  64       -6.698572
  65       -6.634721
  66       -6.634399
  67       -6.627938
  68       -6.605494
  69       -6.595258
  70       -6.506881
  71       -6.490832
  72       -6.490322
  73       -6.483870
  74       -6.479734
  75       -6.476840
  76       -6.476296
  77       -6.455443
  78       -6.431982
  79       -6.431596
  80       -6.428364
  81       -6.319654
  82       -6.304479
  83       -6.304149
  84       -6.255148
  85       -6.254697
  86       -6.246460
  87       -6.244999
  88       -6.225297
  89       -6.225261
  90       -6.135207
  91       -6.131328
  92       -6.131309
  93       -6.100185
  94       -6.098717
  95       -6.096677
  96       -6.096087
  97       -6.095332
  98       -6.087750
  99       -6.087002
 100       -6.076751
 101       -6.075631
 102       -6.074755
 103       -6.064314
 104       -6.052074
 105       -6.036969
 106       -6.027619
 107       -6.014558
 108       -6.009979
 109       -6.009616
 110       -6.001037
 111       -5.986461
 112       -5.911524
 113       -5.910047
 114       -5.907496
 115       -5.906457
 116       -5.891483
 117       -5.890952
 118       -5.879973
 119       -5.879768
 120       -5.867773
 121       -5.862404
 122       -5.846443
 123       -5.802425
 124       -5.799920
 125       -5.751230
 126       -5.751156
 127       -5.736785
 128       -5.639113
 129       -5.637562
 130       -5.637457
 131       -5.600001
 132       -5.585487
 133       -5.563017
 134       -5.562473
 135       -5.562324
 136       -5.560612
 137       -5.559962
 138       -5.551744
 139       -5.551240
 140       -5.550018
 141       -5.541182
 142       -5.536784
 143       -5.536602
 144       -5.529693
 145       -5.495233
 146       -5.488639
 147       -5.488619
 148       -5.462358
 149       -5.445866
 150       -5.441028
 151       -5.440697
 152       -5.426248
 153       -5.420239
 154       -5.420172
 155       -5.412158
 156       -5.407829
 157       -5.391266
 158       -5.391262
 159       -5.389145
 160       -5.362366
 161       -5.362032
 162       -5.359880
 163       -5.358429
 164       -5.356540
 165       -5.343774
 166       -5.332996
 167       -5.332964
 168       -5.327243
 169       -5.311730
 170       -5.305461
 171       -5.304436
 172       -5.303782
 173       -5.303724
 174       -5.298825
 175       -5.297766
 176       -5.297458
 177       -5.293666
 178       -5.293522
 179       -5.290816
 180       -5.289445
 181       -5.276733
 182       -5.271543
 183       -5.271453
 184       -5.267019
 185       -5.266932
 186       -5.260035
 187       -5.258876
 188       -5.255710
 189       -5.255543
 190       -5.218986
 191       -5.218635
 192       -5.210419
 193       -5.163682
 194       -5.160180
 195       -5.144221
 196       -5.129028
 197       -5.094109
 198       -5.092742
 199       -5.092486
 200       -4.879650
 201       -4.686872
 202       -4.664079
 203       -4.663455
 204       -4.634920
 205       -4.633847
 206       -4.632781
 207       -4.364324
 208       -3.387954
 209       -3.375513
 210       -3.375479
 211       -3.100350
 212       -3.098000
 213       -3.066298
 214       -3.065921
 215       -3.039348
 216       -2.964513
 217       -2.964238
 218       -2.962824
 219       -2.938458
 220       -2.036019
 221       -2.035547
 222       -2.029374
 223       -1.863961
 224       -1.726848
 225       -1.689984
 226       -1.352050
 227       -1.296365
 228       -1.296109
 229       -1.281454
 230       -1.271992
 231       -1.172785
 232       -1.162719
 233       -1.162117
 234       -0.540389
 235       -0.539401
 236       -0.518606
 237       -0.286710
 238       -0.286102
 239       -0.284700
 240       -0.176281
 241       -0.166830
 242       -0.165932
 243        0.615991
 244        0.616294
 245        0.621115
 246        0.650611
 247        0.653075
 248        0.758698
 249        0.808994
 250        0.810194
