       N       E                     dE             d eps       ncg     rms          rms(c)
DAV:   1     0.215173551792E+04    0.21517E+04   -0.11637E+05   580   0.816E+02
DAV:   2     0.124621016017E+03   -0.20271E+04   -0.19406E+04   598   0.264E+02
DAV:   3    -0.100119405037E+03   -0.22474E+03   -0.20033E+03   672   0.942E+01
DAV:   4    -0.114179179781E+03   -0.14060E+02   -0.13878E+02   544   0.215E+01
DAV:   5    -0.114372556726E+03   -0.19338E+00   -0.19301E+00   552   0.262E+00    0.274E+01
RMM:   6    -0.109122585896E+03    0.52500E+01   -0.20639E+02   501   0.463E+01    0.170E+01
RMM:   7    -0.996611777233E+02    0.94614E+01   -0.41812E+01   500   0.216E+01    0.231E+00
RMM:   8    -0.994127424947E+02    0.24844E+00   -0.10600E+00   500   0.230E+00    0.196E+00
RMM:   9    -0.993422729162E+02    0.70470E-01   -0.24535E-01   500   0.132E+00    0.127E+00
RMM:  10    -0.993026072923E+02    0.39666E-01   -0.10683E-01   500   0.916E-01    0.534E-01
RMM:  11    -0.992830843173E+02    0.19523E-01   -0.37865E-02   500   0.569E-01    0.262E-01
RMM:  12    -0.992814760830E+02    0.16082E-02   -0.15129E-02   500   0.353E-01    0.160E-01
RMM:  13    -0.992850838406E+02   -0.36078E-02   -0.44385E-03   500   0.143E-01    0.198E-01
RMM:  14    -0.992918176568E+02   -0.67338E-02   -0.79759E-03   500   0.275E-01    0.683E-02
RMM:  15    -0.993017088205E+02   -0.98912E-02   -0.23726E-03   500   0.637E-02    0.471E-02
RMM:  16    -0.993055359509E+02   -0.38271E-02   -0.15957E-03   500   0.561E-02    0.172E-02
RMM:  17    -0.993072636019E+02   -0.17277E-02   -0.57824E-04   500   0.255E-02    0.196E-02
RMM:  18    -0.993078825332E+02   -0.61893E-03   -0.73361E-05   493   0.178E-02    0.843E-03
RMM:  19    -0.993082450950E+02   -0.36256E-03   -0.55790E-05   490   0.136E-02    0.754E-03
RMM:  20    -0.993084635224E+02   -0.21843E-03   -0.55238E-05   485   0.912E-03    0.268E-03
RMM:  21    -0.993085143987E+02   -0.50876E-04   -0.10075E-05   333   0.351E-03    0.175E-03
RMM:  22    -0.993085605082E+02   -0.46110E-04   -0.13618E-05   343   0.340E-03    0.172E-03
RMM:  23    -0.993085746829E+02   -0.14175E-04   -0.97832E-06   328   0.262E-03    0.134E-03
RMM:  24    -0.993085754792E+02   -0.79633E-06   -0.59996E-07   286   0.115E-03
   1 F= -.99308575E+02 E0= -.98976636E+02  d E =-.993086E+02
       N       E                     dE             d eps       ncg     rms          rms(c)
DAV:   1    -0.997390535851E+02   -0.43048E+00   -0.31150E+01   520   0.108E+01    0.249E-01
RMM:   2    -0.997529273282E+02   -0.13874E-01   -0.15592E-01   501   0.963E-01    0.183E-01
RMM:   3    -0.997529823761E+02   -0.55048E-04   -0.82729E-03   503   0.226E-01    0.138E-01
RMM:   4    -0.997527240386E+02    0.25834E-03   -0.49883E-04   501   0.553E-02    0.109E-01
RMM:   5    -0.997524724372E+02    0.25160E-03   -0.13180E-03   500   0.806E-02    0.545E-02
RMM:   6    -0.997524190104E+02    0.53427E-04   -0.34840E-04   501   0.529E-02    0.188E-02
RMM:   7    -0.997524006960E+02    0.18314E-04   -0.41184E-05   498   0.132E-02    0.812E-03
RMM:   8    -0.997523979701E+02    0.27259E-05   -0.10940E-05   360   0.604E-03    0.279E-03
RMM:   9    -0.997523975641E+02    0.40598E-06   -0.13172E-06   272   0.320E-03
   2 F= -.99752398E+02 E0= -.99418457E+02  d E =-.443822E+00
       N       E                     dE             d eps       ncg     rms          rms(c)
DAV:   1    -0.100548545511E+03   -0.79615E+00   -0.28263E+02   500   0.327E+01    0.796E-01
RMM:   2    -0.100682018593E+03   -0.13347E+00   -0.15214E+00   501   0.295E+00    0.562E-01
RMM:   3    -0.100681248944E+03    0.76965E-03   -0.71927E-02   500   0.715E-01    0.404E-01
RMM:   4    -0.100679118141E+03    0.21308E-02   -0.51093E-03   501   0.177E-01    0.312E-01
RMM:   5    -0.100677315040E+03    0.18031E-02   -0.92768E-03   500   0.230E-01    0.156E-01
RMM:   6    -0.100676839503E+03    0.47554E-03   -0.28981E-03   501   0.154E-01    0.493E-02
RMM:   7    -0.100676717710E+03    0.12179E-03   -0.20820E-04   501   0.347E-02    0.238E-02
RMM:   8    -0.100676688356E+03    0.29353E-04   -0.11722E-04   501   0.170E-02    0.801E-03
RMM:   9    -0.100676686930E+03    0.14267E-05   -0.87225E-06   455   0.768E-03    0.420E-03
RMM:  10    -0.100676685848E+03    0.10821E-05   -0.24320E-06   308   0.430E-03    0.138E-03
RMM:  11    -0.100676685424E+03    0.42386E-06   -0.56030E-07   277   0.219E-03
   3 F= -.10067669E+03 E0= -.10033698E+03  d E =-.136811E+01
       N       E                     dE             d eps       ncg     rms          rms(c)
DAV:   1    -0.100164685645E+03    0.51200E+00   -0.11620E+03   500   0.684E+01    0.177E+00
RMM:   2    -0.100853249508E+03   -0.68856E+00   -0.77047E+00   501   0.650E+00    0.114E+00
RMM:   3    -0.100845494020E+03    0.77555E-02   -0.28235E-01   501   0.154E+00    0.787E-01
RMM:   4    -0.100837582066E+03    0.79120E-02   -0.25614E-02   503   0.411E-01    0.572E-01
RMM:   5    -0.100831100713E+03    0.64814E-02   -0.28257E-02   501   0.446E-01    0.254E-01
RMM:   6    -0.100829809277E+03    0.12914E-02   -0.78912E-03   501   0.259E-01    0.845E-02
RMM:   7    -0.100829555832E+03    0.25345E-03   -0.64851E-04   501   0.779E-02    0.351E-02
RMM:   8    -0.100829502990E+03    0.52841E-04   -0.28512E-04   501   0.315E-02    0.152E-02
RMM:   9    -0.100829500745E+03    0.22451E-05   -0.31752E-05   501   0.156E-02    0.693E-03
RMM:  10    -0.100829502218E+03   -0.14726E-05   -0.57697E-06   405   0.611E-03    0.266E-03
RMM:  11    -0.100829502953E+03   -0.73495E-06   -0.11047E-06   296   0.248E-03
   4 F= -.10082950E+03 E0= -.10047773E+03  d E =-.152093E+01
       N       E                     dE             d eps       ncg     rms          rms(c)
DAV:   1    -0.100934735531E+03   -0.10523E+00   -0.21366E+02   500   0.284E+01    0.588E-01
RMM:   2    -0.101040775485E+03   -0.10604E+00   -0.11469E+00   501   0.271E+00    0.440E-01
RMM:   3    -0.101042593409E+03   -0.18179E-02   -0.53164E-02   504   0.474E-01    0.381E-01
RMM:   4    -0.101039903147E+03    0.26903E-02   -0.37504E-03   501   0.146E-01    0.266E-01
RMM:   5    -0.101038043003E+03    0.18601E-02   -0.86333E-03   501   0.177E-01    0.705E-02
RMM:   6    -0.101037850519E+03    0.19248E-03   -0.65599E-04   500   0.721E-02    0.591E-02
RMM:   7    -0.101037732898E+03    0.11762E-03   -0.24986E-04   501   0.430E-02    0.277E-02
RMM:   8    -0.101037703431E+03    0.29467E-04   -0.18541E-04   501   0.220E-02    0.508E-03
RMM:   9    -0.101037703028E+03    0.40328E-06   -0.50613E-06   354   0.612E-03
   5 F= -.10103770E+03 E0= -.10069139E+03  d E =-.172913E+01
       N       E                     dE             d eps       ncg     rms          rms(c)
DAV:   1    -0.101277475890E+03   -0.23977E+00   -0.37341E+01   500   0.131E+01    0.381E-01
RMM:   2    -0.101283162523E+03   -0.56866E-02   -0.10116E-01   500   0.860E-01    0.281E-01
RMM:   3    -0.101281782025E+03    0.13805E-02   -0.82279E-03   504   0.280E-01    0.160E-01
RMM:   4    -0.101281054209E+03    0.72782E-03   -0.13276E-03   501   0.833E-02    0.507E-02
RMM:   5    -0.101281057019E+03   -0.28095E-05   -0.48446E-04   501   0.615E-02    0.354E-02
RMM:   6    -0.101281025922E+03    0.31097E-04   -0.10335E-04   500   0.317E-02    0.851E-03
RMM:   7    -0.101281030168E+03   -0.42458E-05   -0.14128E-05   493   0.680E-03    0.431E-03
RMM:   8    -0.101281032098E+03   -0.19300E-05   -0.22111E-06   297   0.423E-03    0.240E-03
RMM:   9    -0.101281034490E+03   -0.23920E-05   -0.88590E-07   293   0.266E-03    0.880E-04
RMM:  10    -0.101281035783E+03   -0.12939E-05   -0.33812E-07   286   0.109E-03    0.626E-04
RMM:  11    -0.101281036616E+03   -0.83236E-06   -0.27892E-07   264   0.995E-04
   6 F= -.10128104E+03 E0= -.10094175E+03  d E =-.243334E+00
       N       E                     dE             d eps       ncg     rms          rms(c)
DAV:   1    -0.101821107509E+03   -0.54007E+00   -0.33944E+02   500   0.401E+01    0.123E+00
RMM:   2    -0.101892161933E+03   -0.71054E-01   -0.11537E+00   500   0.263E+00    0.864E-01
RMM:   3    -0.101877550933E+03    0.14611E-01   -0.80846E-02   504   0.901E-01    0.492E-01
RMM:   4    -0.101871379978E+03    0.61710E-02   -0.13335E-02   501   0.306E-01    0.214E-01
RMM:   5    -0.101870840795E+03    0.53918E-03   -0.79427E-03   501   0.252E-01    0.122E-01
RMM:   6    -0.101870486799E+03    0.35400E-03   -0.12096E-03   500   0.111E-01    0.262E-02
RMM:   7    -0.101870503978E+03   -0.17179E-04   -0.16240E-04   501   0.279E-02    0.184E-02
RMM:   8    -0.101870512246E+03   -0.82684E-05   -0.34587E-05   495   0.164E-02    0.772E-03
RMM:   9    -0.101870527237E+03   -0.14990E-04   -0.87339E-06   470   0.726E-03    0.315E-03
RMM:  10    -0.101870534684E+03   -0.74474E-05   -0.29029E-06   306   0.345E-03    0.227E-03
RMM:  11    -0.101870538337E+03   -0.36534E-05   -0.18277E-06   301   0.298E-03    0.147E-03
RMM:  12    -0.101870541411E+03   -0.30738E-05   -0.46234E-06   312   0.256E-03    0.104E-03
RMM:  13    -0.101870540833E+03    0.57867E-06   -0.12325E-06   299   0.166E-03
   7 F= -.10187054E+03 E0= -.10155579E+03  d E =-.832838E+00
       N       E                     dE             d eps       ncg     rms          rms(c)
DAV:   1    -0.101883219896E+03   -0.12678E-01   -0.14058E+03   500   0.861E+01    0.277E+00
RMM:   2    -0.102422227543E+03   -0.53901E+00   -0.74910E+00   500   0.678E+00    0.187E+00
RMM:   3    -0.102347525894E+03    0.74702E-01   -0.42898E-01   504   0.213E+00    0.107E+00
RMM:   4    -0.102324458428E+03    0.23067E-01   -0.64315E-02   501   0.756E-01    0.588E-01
RMM:   5    -0.102317639198E+03    0.68192E-02   -0.42294E-02   501   0.584E-01    0.247E-01
RMM:   6    -0.102316351681E+03    0.12875E-02   -0.52721E-03   500   0.233E-01    0.521E-02
RMM:   7    -0.102316372718E+03   -0.21037E-04   -0.55859E-04   501   0.609E-02    0.394E-02
RMM:   8    -0.102316405877E+03   -0.33159E-04   -0.17988E-04   500   0.375E-02    0.166E-02
RMM:   9    -0.102316463446E+03   -0.57569E-04   -0.24906E-05   499   0.123E-02    0.630E-03
RMM:  10    -0.102316504086E+03   -0.40639E-04   -0.14838E-05   485   0.802E-03    0.553E-03
RMM:  11    -0.102316524617E+03   -0.20531E-04   -0.61708E-06   347   0.523E-03    0.263E-03
RMM:  12    -0.102316558561E+03   -0.33944E-04   -0.23754E-05   406   0.529E-03    0.187E-03
RMM:  13    -0.102316563471E+03   -0.49106E-05   -0.40559E-06   309   0.257E-03    0.155E-03
RMM:  14    -0.102316564623E+03   -0.11519E-05   -0.14337E-06   298   0.210E-03    0.107E-03
RMM:  15    -0.102316563709E+03    0.91411E-06   -0.93219E-07   296   0.144E-03
   8 F= -.10231656E+03 E0= -.10206069E+03  d E =-.127886E+01
       N       E                     dE             d eps       ncg     rms          rms(c)
DAV:   1    -0.102325033733E+03   -0.84691E-02   -0.38463E+01   500   0.133E+01    0.392E-01
RMM:   2    -0.102330614542E+03   -0.55808E-02   -0.10205E-01   500   0.103E+00    0.290E-01
RMM:   3    -0.102329266650E+03    0.13479E-02   -0.87316E-03   504   0.281E-01    0.178E-01
RMM:   4    -0.102328191288E+03    0.10754E-02   -0.17128E-03   501   0.915E-02    0.563E-02
RMM:   5    -0.102328125796E+03    0.65492E-04   -0.61371E-04   501   0.683E-02    0.391E-02
RMM:   6    -0.102328094617E+03    0.31179E-04   -0.11133E-04   500   0.330E-02    0.867E-03
RMM:   7    -0.102328096387E+03   -0.17701E-05   -0.15547E-05   496   0.699E-03    0.389E-03
RMM:   8    -0.102328097012E+03   -0.62449E-06   -0.18172E-06   295   0.381E-03
   9 F= -.10232810E+03 E0= -.10206197E+03  d E =-.129039E+01
       N       E                     dE             d eps       ncg     rms          rms(c)
DAV:   1    -0.102390321427E+03   -0.62225E-01   -0.57424E+01   500   0.146E+01    0.333E-01
RMM:   2    -0.102420167162E+03   -0.29846E-01   -0.32624E-01   501   0.159E+00    0.336E-01
RMM:   3    -0.102419563907E+03    0.60325E-03   -0.19769E-02   503   0.354E-01    0.228E-01
RMM:   4    -0.102418690287E+03    0.87362E-03   -0.11400E-03   501   0.818E-02    0.182E-01
RMM:   5    -0.102417578320E+03    0.11120E-02   -0.41091E-03   501   0.109E-01    0.372E-02
RMM:   6    -0.102417549282E+03    0.29038E-04   -0.23375E-04   501   0.470E-02    0.321E-02
RMM:   7    -0.102417508220E+03    0.41062E-04   -0.81820E-05   501   0.216E-02    0.178E-02
RMM:   8    -0.102417496873E+03    0.11347E-04   -0.37993E-05   501   0.129E-02    0.599E-03
RMM:   9    -0.102417496310E+03    0.56309E-06   -0.71493E-06   387   0.630E-03
  10 F= -.10241750E+03 E0= -.10216403E+03  d E =-.893993E-01
       N       E                     dE             d eps       ncg     rms          rms(c)
DAV:   1    -0.102419616415E+03   -0.21195E-02   -0.35731E+00   500   0.364E+00    0.803E-02
RMM:   2    -0.102421369028E+03   -0.17526E-02   -0.19166E-02   501   0.387E-01    0.791E-02
RMM:   3    -0.102421344108E+03    0.24920E-04   -0.11411E-03   504   0.839E-02    0.564E-02
RMM:   4    -0.102421289556E+03    0.54552E-04   -0.64838E-05   498   0.198E-02    0.446E-02
RMM:   5    -0.102421221246E+03    0.68311E-04   -0.25452E-04   501   0.267E-02    0.972E-03
RMM:   6    -0.102421217573E+03    0.36725E-05   -0.13908E-05   499   0.114E-02    0.776E-03
RMM:   7    -0.102421215361E+03    0.22123E-05   -0.47699E-06   332   0.532E-03    0.435E-03
RMM:   8    -0.102421214876E+03    0.48485E-06   -0.24411E-06   301   0.360E-03
  11 F= -.10242121E+03 E0= -.10217087E+03  d E =-.931179E-01
       N       E                     dE             d eps       ncg     rms          rms(c)
DAV:   1    -0.102462854612E+03   -0.41639E-01   -0.24882E+01   502   0.106E+01    0.299E-01
RMM:   2    -0.102468501470E+03   -0.56469E-02   -0.77837E-02   500   0.914E-01    0.292E-01
RMM:   3    -0.102467096332E+03    0.14051E-02   -0.70472E-03   502   0.251E-01    0.151E-01
RMM:   4    -0.102466482637E+03    0.61370E-03   -0.12518E-03   501   0.785E-02    0.473E-02
RMM:   5    -0.102466438447E+03    0.44190E-04   -0.17958E-04   501   0.356E-02    0.162E-02
RMM:   6    -0.102466431700E+03    0.67471E-05   -0.28618E-05   501   0.154E-02    0.752E-03
RMM:   7    -0.102466430756E+03    0.94426E-06   -0.72556E-06   473   0.687E-03
  12 F= -.10246643E+03 E0= -.10222292E+03  d E =-.452159E-01
       N       E                     dE             d eps       ncg     rms          rms(c)
DAV:   1    -0.102484332845E+03   -0.17901E-01   -0.70896E+01   502   0.179E+01    0.515E-01
RMM:   2    -0.102501903682E+03   -0.17571E-01   -0.23981E-01   500   0.160E+00    0.518E-01
RMM:   3    -0.102497245475E+03    0.46582E-02   -0.21749E-02   502   0.442E-01    0.254E-01
RMM:   4    -0.102495490451E+03    0.17550E-02   -0.37498E-03   501   0.140E-01    0.885E-02
RMM:   5    -0.102495335372E+03    0.15508E-03   -0.64241E-04   501   0.678E-02    0.306E-02
RMM:   6    -0.102495312162E+03    0.23210E-04   -0.97444E-05   501   0.288E-02    0.123E-02
RMM:   7    -0.102495310184E+03    0.19778E-05   -0.20976E-05   501   0.109E-02    0.730E-03
RMM:   8    -0.102495310071E+03    0.11315E-06   -0.73344E-06   458   0.747E-03
  13 F= -.10249531E+03 E0= -.10226213E+03  d E =-.740952E-01
       N       E                     dE             d eps       ncg     rms          rms(c)
DAV:   1    -0.102508223997E+03   -0.12914E-01   -0.16544E+01   504   0.841E+00    0.265E-01
RMM:   2    -0.102512920358E+03   -0.46964E-02   -0.63512E-02   501   0.775E-01    0.251E-01
RMM:   3    -0.102511811712E+03    0.11086E-02   -0.62485E-03   504   0.236E-01    0.131E-01
RMM:   4    -0.102511304336E+03    0.50738E-03   -0.86615E-04   501   0.646E-02    0.442E-02
RMM:   5    -0.102511270868E+03    0.33468E-04   -0.17189E-04   501   0.335E-02    0.142E-02
RMM:   6    -0.102511266643E+03    0.42245E-05   -0.26331E-05   501   0.157E-02    0.768E-03
RMM:   7    -0.102511265848E+03    0.79536E-06   -0.66222E-06   458   0.743E-03
  14 F= -.10251127E+03 E0= -.10228572E+03  d E =-.159558E-01
       N       E                     dE             d eps       ncg     rms          rms(c)
DAV:   1    -0.102512559662E+03   -0.12930E-02   -0.34360E+00   504   0.382E+00    0.118E-01
RMM:   2    -0.102513472345E+03   -0.91268E-03   -0.12368E-02   501   0.340E-01    0.107E-01
RMM:   3    -0.102513284389E+03    0.18796E-03   -0.11895E-03   504   0.102E-01    0.602E-02
RMM:   4    -0.102513172924E+03    0.11146E-03   -0.17703E-04   501   0.293E-02    0.184E-02
RMM:   5    -0.102513168910E+03    0.40142E-05   -0.32994E-05   501   0.152E-02    0.602E-03
RMM:   6    -0.102513168307E+03    0.60366E-06   -0.47871E-06   408   0.677E-03
  15 F= -.10251317E+03 E0= -.10229093E+03  d E =-.178582E-01
       N       E                     dE             d eps       ncg     rms          rms(c)
DAV:   1    -0.102517496197E+03   -0.43273E-02   -0.39901E+00   504   0.430E+00    0.104E-01
RMM:   2    -0.102518495076E+03   -0.99888E-03   -0.12284E-02   500   0.370E-01    0.823E-02
RMM:   3    -0.102518412290E+03    0.82786E-04   -0.86010E-04   504   0.850E-02    0.574E-02
RMM:   4    -0.102518327735E+03    0.84555E-04   -0.17459E-04   501   0.327E-02    0.138E-02
RMM:   5    -0.102518328620E+03   -0.88582E-06   -0.26914E-05   501   0.147E-02    0.721E-03
RMM:   6    -0.102518327306E+03    0.13141E-05   -0.66555E-06   459   0.781E-03    0.358E-03
RMM:   7    -0.102518327371E+03   -0.64458E-07   -0.14821E-06   278   0.370E-03
  16 F= -.10251833E+03 E0= -.10229887E+03  d E =-.515906E-02
       N       E                     dE             d eps       ncg     rms          rms(c)
DAV:   1    -0.102519164228E+03   -0.83692E-03   -0.24890E+00   500   0.339E+00    0.818E-02
RMM:   2    -0.102519788122E+03   -0.62389E-03   -0.76412E-03   500   0.292E-01    0.645E-02
RMM:   3    -0.102519738290E+03    0.49832E-04   -0.52986E-04   504   0.667E-02    0.453E-02
RMM:   4    -0.102519686576E+03    0.51714E-04   -0.11203E-04   501   0.261E-02    0.105E-02
RMM:   5    -0.102519687573E+03   -0.99665E-06   -0.15366E-05   501   0.111E-02    0.543E-03
RMM:   6    -0.102519686852E+03    0.72058E-06   -0.37786E-06   353   0.592E-03
  17 F= -.10251969E+03 E0= -.10230235E+03  d E =-.651855E-02
       N       E                     dE             d eps       ncg     rms          rms(c)
DAV:   1    -0.102520216195E+03   -0.52862E-03   -0.10475E+00   504   0.218E+00    0.491E-02
RMM:   2    -0.102520555968E+03   -0.33977E-03   -0.41011E-03   501   0.206E-01    0.462E-02
RMM:   3    -0.102520534479E+03    0.21489E-04   -0.27106E-04   504   0.449E-02    0.283E-02
RMM:   4    -0.102520507253E+03    0.27225E-04   -0.22366E-05   498   0.115E-02    0.139E-02
RMM:   5    -0.102520497957E+03    0.92960E-05   -0.18455E-05   500   0.100E-02    0.433E-03
RMM:   6    -0.102520497585E+03    0.37230E-06   -0.23228E-06   278   0.481E-03
  18 F= -.10252050E+03 E0= -.10230368E+03  d E =-.810733E-03
       N       E                     dE             d eps       ncg     rms          rms(c)
DAV:   1    -0.102520497860E+03    0.97411E-07   -0.15724E-02   520   0.267E-01    0.629E-03
RMM:   2    -0.102520502370E+03   -0.45098E-05   -0.65145E-05   501   0.261E-02    0.606E-03
RMM:   3    -0.102520501781E+03    0.58857E-06   -0.43321E-06   338   0.600E-03
  19 F= -.10252050E+03 E0= -.10230374E+03  d E =-.814929E-03
       N       E                     dE             d eps       ncg     rms          rms(c)
DAV:   1    -0.102520963991E+03   -0.46162E-03   -0.97796E-01   504   0.210E+00    0.489E-02
RMM:   2    -0.102521235233E+03   -0.27124E-03   -0.35308E-03   501   0.189E-01    0.553E-02
RMM:   3    -0.102521192487E+03    0.42746E-04   -0.25677E-04   504   0.455E-02    0.297E-02
RMM:   4    -0.102521160403E+03    0.32084E-04   -0.32271E-05   501   0.136E-02    0.145E-02
RMM:   5    -0.102521150433E+03    0.99698E-05   -0.29675E-05   500   0.132E-02    0.535E-03
RMM:   6    -0.102521149922E+03    0.51093E-06   -0.27058E-06   289   0.525E-03
  20 F= -.10252115E+03 E0= -.10230385E+03  d E =-.648141E-03
       N       E                     dE             d eps       ncg     rms          rms(c)
DAV:   1    -0.102521178227E+03   -0.27793E-04   -0.56149E-01   500   0.159E+00    0.368E-02
RMM:   2    -0.102521337262E+03   -0.15904E-03   -0.20636E-03   501   0.145E-01    0.423E-02
RMM:   3    -0.102521311877E+03    0.25385E-04   -0.15193E-04   504   0.351E-02    0.221E-02
RMM:   4    -0.102521294473E+03    0.17404E-04   -0.16472E-05   495   0.996E-03    0.116E-02
RMM:   5    -0.102521287622E+03    0.68517E-05   -0.19206E-05   501   0.106E-02    0.444E-03
RMM:   6    -0.102521287278E+03    0.34396E-06   -0.18073E-06   267   0.433E-03
  21 F= -.10252129E+03 E0= -.10230358E+03  d E =-.785497E-03
       N       E                     dE             d eps       ncg     rms          rms(c)
DAV:   1    -0.102521839295E+03   -0.55167E-03   -0.85773E-01   500   0.198E+00    0.513E-02
RMM:   2    -0.102522003883E+03   -0.16459E-03   -0.26104E-03   500   0.168E-01    0.571E-02
RMM:   3    -0.102521945069E+03    0.58814E-04   -0.23067E-04   503   0.464E-02    0.265E-02
RMM:   4    -0.102521913436E+03    0.31633E-04   -0.44708E-05   501   0.171E-02    0.792E-03
RMM:   5    -0.102521910326E+03    0.31101E-05   -0.10054E-05   494   0.865E-03    0.495E-03
RMM:   6    -0.102521909972E+03    0.35415E-06   -0.18134E-06   274   0.425E-03
  22 F= -.10252191E+03 E0= -.10230388E+03  d E =-.622694E-03
       N       E                     dE             d eps       ncg     rms          rms(c)
DAV:   1    -0.102522036855E+03   -0.12653E-03   -0.15573E+00   500   0.267E+00    0.688E-02
RMM:   2    -0.102522332720E+03   -0.29587E-03   -0.46861E-03   500   0.225E-01    0.762E-02
RMM:   3    -0.102522229555E+03    0.10317E-03   -0.41220E-04   503   0.619E-02    0.357E-02
RMM:   4    -0.102522173863E+03    0.55692E-04   -0.81221E-05   501   0.228E-02    0.104E-02
RMM:   5    -0.102522169522E+03    0.43407E-05   -0.16990E-05   501   0.112E-02    0.645E-03
RMM:   6    -0.102522168879E+03    0.64327E-06   -0.31298E-06   332   0.547E-03
  23 F= -.10252217E+03 E0= -.10230367E+03  d E =-.881601E-03
       N       E                     dE             d eps       ncg     rms          rms(c)
DAV:   1    -0.102522493540E+03   -0.32402E-03   -0.11513E+00   500   0.230E+00    0.547E-02
RMM:   2    -0.102522746991E+03   -0.25345E-03   -0.35823E-03   500   0.201E-01    0.633E-02
RMM:   3    -0.102522682443E+03    0.64548E-04   -0.28712E-04   504   0.506E-02    0.302E-02
RMM:   4    -0.102522649050E+03    0.33393E-04   -0.50397E-05   501   0.185E-02    0.914E-03
RMM:   5    -0.102522647957E+03    0.10933E-05   -0.12679E-05   501   0.918E-03    0.545E-03
RMM:   6    -0.102522647347E+03    0.60986E-06   -0.20779E-06   277   0.453E-03
  24 F= -.10252265E+03 E0= -.10230383E+03  d E =-.478469E-03
       N       E                     dE             d eps       ncg     rms          rms(c)
DAV:   1    -0.102522644946E+03    0.30110E-05   -0.36340E-01   500   0.129E+00    0.310E-02
RMM:   2    -0.102522725123E+03   -0.80177E-04   -0.11419E-03   500   0.114E-01    0.360E-02
RMM:   3    -0.102522704088E+03    0.21034E-04   -0.92711E-05   504   0.288E-02    0.170E-02
RMM:   4    -0.102522693781E+03    0.10307E-04   -0.15932E-05   500   0.104E-02    0.522E-03
RMM:   5    -0.102522693694E+03    0.87653E-07   -0.38179E-06   332   0.525E-03
  25 F= -.10252269E+03 E0= -.10230370E+03  d E =-.524815E-03
       N       E                     dE             d eps       ncg     rms          rms(c)
DAV:   1    -0.102522785173E+03   -0.91392E-04   -0.60444E-01   500   0.167E+00    0.353E-02
RMM:   2    -0.102522965199E+03   -0.18003E-03   -0.21146E-03   501   0.150E-01    0.367E-02
RMM:   3    -0.102522952193E+03    0.13006E-04   -0.13993E-04   504   0.323E-02    0.216E-02
RMM:   4    -0.102522941324E+03    0.10869E-04   -0.14848E-05   495   0.962E-03    0.115E-02
RMM:   5    -0.102522942024E+03   -0.69932E-06   -0.17042E-05   501   0.104E-02    0.430E-03
RMM:   6    -0.102522941439E+03    0.58432E-06   -0.18256E-06   271   0.438E-03
  26 F= -.10252294E+03 E0= -.10230416E+03  d E =-.247746E-03
       N       E                     dE             d eps       ncg     rms          rms(c)
DAV:   1    -0.102522941485E+03    0.53855E-06   -0.73781E-05   520   0.196E-02    0.117E-03
RMM:   2    -0.102522941719E+03   -0.23419E-06   -0.71125E-07   266   0.309E-03
  27 F= -.10252294E+03 E0= -.10230416E+03  d E =-.248026E-03
       N       E                     dE             d eps       ncg     rms          rms(c)
DAV:   1    -0.102523036026E+03   -0.94540E-04   -0.11014E-01   504   0.705E-01    0.163E-02
RMM:   2    -0.102523066276E+03   -0.30250E-04   -0.33851E-04   500   0.574E-02    0.136E-02
RMM:   3    -0.102523064827E+03    0.14487E-05   -0.23076E-05   504   0.137E-02    0.913E-03
RMM:   4    -0.102523064193E+03    0.63358E-06   -0.43170E-06   340   0.536E-03
  28 F= -.10252306E+03 E0= -.10230457E+03  d E =-.122474E-03
       N       E                     dE             d eps       ncg     rms          rms(c)
DAV:   1    -0.102523102792E+03   -0.37965E-04   -0.62453E-02   500   0.532E-01    0.125E-02
RMM:   2    -0.102523121283E+03   -0.18491E-04   -0.19860E-04   500   0.445E-02    0.110E-02
RMM:   3    -0.102523120388E+03    0.89520E-06   -0.14750E-05   502   0.109E-02    0.693E-03
RMM:   4    -0.102523120514E+03   -0.12659E-06   -0.20413E-06   296   0.377E-03
  29 F= -.10252312E+03 E0= -.10230482E+03  d E =-.178795E-03
       N       E                     dE             d eps       ncg     rms          rms(c)
DAV:   1    -0.102523062429E+03    0.57958E-04   -0.24978E-01   500   0.106E+00    0.246E-02
RMM:   2    -0.102523128901E+03   -0.66472E-04   -0.77408E-04   500   0.870E-02    0.210E-02
RMM:   3    -0.102523124431E+03    0.44699E-05   -0.54366E-05   504   0.210E-02    0.138E-02
RMM:   4    -0.102523120988E+03    0.34429E-05   -0.98314E-06   486   0.795E-03    0.564E-03
RMM:   5    -0.102523122672E+03   -0.16837E-05   -0.52390E-06   401   0.618E-03    0.298E-03
RMM:   6    -0.102523122450E+03    0.22137E-06   -0.10946E-06   264   0.365E-03
  30 F= -.10252312E+03 E0= -.10230522E+03  d E =-.180731E-03
       N       E                     dE             d eps       ncg     rms          rms(c)
DAV:   1    -0.102523130998E+03   -0.83266E-05   -0.81718E-02   500   0.608E-01    0.141E-02
RMM:   2    -0.102523147074E+03   -0.16076E-04   -0.25026E-04   500   0.497E-02    0.117E-02
RMM:   3    -0.102523144262E+03    0.28129E-05   -0.17028E-05   503   0.118E-02    0.786E-03
RMM:   4    -0.102523139694E+03    0.45672E-05   -0.32807E-06   319   0.465E-03    0.317E-03
RMM:   5    -0.102523138252E+03    0.14426E-05   -0.23426E-06   275   0.477E-03    0.207E-03
RMM:   6    -0.102523138240E+03    0.11525E-07   -0.64021E-07   263   0.292E-03
  31 F= -.10252314E+03 E0= -.10230501E+03  d E =-.196521E-03
       N       E                     dE             d eps       ncg     rms          rms(c)
DAV:   1    -0.102523203050E+03   -0.64798E-04   -0.12581E-01   500   0.759E-01    0.178E-02
RMM:   2    -0.102523231285E+03   -0.28236E-04   -0.36920E-04   501   0.608E-02    0.153E-02
RMM:   3    -0.102523227648E+03    0.36375E-05   -0.26705E-05   503   0.152E-02    0.956E-03
RMM:   4    -0.102523224594E+03    0.30537E-05   -0.44507E-06   347   0.473E-03    0.294E-03
RMM:   5    -0.102523224674E+03   -0.80086E-07   -0.13441E-06   269   0.327E-03
  32 F= -.10252322E+03 E0= -.10230515E+03  d E =-.864342E-04
