 vasp.5.3.3 18Dez12 (build Jan 21 2013 20:40:09) gamma-only                     
  
 executed on             LinuxIFC date 2013.08.19  17:48:31
 running on   32 total cores
 distrk:  each k-point on   32 cores,    1 groups
 distr:  one band on NCORES_PER_BAND=  16 cores,    2 groups


--------------------------------------------------------------------------------------------------------


 INCAR:
 POTCAR:    PAW Cu                                
 POTCAR:    PAW Ag                                

 ----------------------------------------------------------------------------- 
|                                                                             |
|           W    W    AA    RRRRR   N    N  II  N    N   GGGG   !!!           |
|           W    W   A  A   R    R  NN   N  II  NN   N  G    G  !!!           |
|           W    W  A    A  R    R  N N  N  II  N N  N  G       !!!           |
|           W WW W  AAAAAA  RRRRR   N  N N  II  N  N N  G  GGG   !            |
|           WW  WW  A    A  R   R   N   NN  II  N   NN  G    G                |
|           W    W  A    A  R    R  N    N  II  N    N   GGGG   !!!           |
|                                                                             |
|      For optimal performance we recommend that you set                      |
|        NPAR = 4 - approx SQRT( number of cores)                             |
|      (number of cores/NPAR must be integer)                                 |
|      This setting will greatly improve the performance of VASP for DFT.     |
|      The default NPAR=number of cores might be grossly inefficient          |
|      on modern multi-core architectures or massively parallel machines.     |
|      Do your own testing.                                                   |
|      Unfortunately you need to use the default for hybrid, GW and RPA       |
|      calculations.                                                          |
|                                                                             |
 ----------------------------------------------------------------------------- 

 POTCAR:    PAW Cu                                
   VRHFIN =Cu: d10 p1                                                           
   LEXCH  = 91                                                                  
   EATOM  =  1393.0707 eV,  102.3878 Ry                                         
                                                                                
   TITEL  = PAW Cu                                                              
   LULTRA =        F    use ultrasoft PP ?                                      
   IUNSCR =        1    unscreen: 0-lin 1-nonlin 2-no                           
   RPACOR =    2.000    partial core radius                                     
   POMASS =   63.546; ZVAL   =   11.000    mass and valenz                      
   RCORE  =    2.300    outmost cutoff radius                                   
   RWIGS  =    2.480; RWIGS  =    1.312    wigner-seitz radius (au A)           
   ENMAX  =  273.246; ENMIN  =  204.934 eV                                      
   RCLOC  =    1.712    cutoff for local pot                                    
   LCOR   =        T    correct aug charges                                     
   LPAW   =        T    paw PP                                                  
   EAUG   =  516.456                                                            
   DEXC   =    -.002                                                            
   RMAX   =    2.789    core radius for proj-oper                               
   RAUG   =    1.300    factor for augmentation sphere                          
   RDEP   =    2.302    core radius for depl-charge                             
   QCUT   =   -4.481; QGAM   =    8.963    optimization parameters              
                                                                                
   Description                                                                  
     l     E      TYP  RCUT    TYP  RCUT                                        
     2   .000     23  2.300                                                     
     2   .000     23  2.300                                                     
     0   .000     23  2.300                                                     
     0   .000     23  2.300                                                     
     1  -.200     23  2.300                                                     
     1   .000     23  2.300                                                     
     3   .000      7   .000                                                     
  local pseudopotential read in
  partial core-charges read in
  atomic valenz-charges read in
  non local Contribution for L=           2  read in
    real space projection operators read in
  non local Contribution for L=           2  read in
    real space projection operators read in
  non local Contribution for L=           0  read in
    real space projection operators read in
  non local Contribution for L=           0  read in
    real space projection operators read in
  non local Contribution for L=           1  read in
    real space projection operators read in
  non local Contribution for L=           1  read in
    real space projection operators read in
    PAW grid and wavefunctions read in
 
   number of l-projection  operators is LMAX  =           6
   number of lm-projection operators is LMMAX =          18
 
 POTCAR:    PAW Ag                                
   VRHFIN =Ag : s1 d10                                                          
   LEXCH  = 91                                                                  
   EATOM  =  1038.4392 eV,   76.3231 Ry                                         
                                                                                
   TITEL  = PAW Ag                                                              
   LULTRA =        F    use ultrasoft PP ?                                      
   IUNSCR =        1    unscreen: 0-lin 1-nonlin 2-no                           
   RPACOR =    2.000    partial core radius                                     
   POMASS =  107.868; ZVAL   =   11.000    mass and valenz                      
   RCORE  =    2.400    outmost cutoff radius                                   
   RWIGS  =    2.840; RWIGS  =    1.503    wigner-seitz radius (au A)           
   ENMAX  =  249.842; ENMIN  =  187.381 eV                                      
   RCLOC  =    1.962    cutoff for local pot                                    
   LCOR   =        T    correct aug charges                                     
   LPAW   =        T    paw PP                                                  
   EAUG   =  412.496                                                            
   DEXC   =    -.021                                                            
   RMAX   =    2.917    core radius for proj-oper                               
   RAUG   =    1.300    factor for augmentation sphere                          
   RDEP   =    2.416    core radius for depl-charge                             
   QCUT   =   -4.285; QGAM   =    8.570    optimization parameters              
                                                                                
   Description                                                                  
     l     E      TYP  RCUT    TYP  RCUT                                        
     2   .000     23  2.400                                                     
     2   .000     23  2.400                                                     
     0   .000     23  2.400                                                     
     0   .000     23  2.400                                                     
     1  -.200     23  2.400                                                     
     1  1.500     23  2.400                                                     
     3   .000      7   .000                                                     
  local pseudopotential read in
  partial core-charges read in
  atomic valenz-charges read in
  non local Contribution for L=           2  read in
    real space projection operators read in
  non local Contribution for L=           2  read in
    real space projection operators read in
  non local Contribution for L=           0  read in
    real space projection operators read in
  non local Contribution for L=           0  read in
    real space projection operators read in
  non local Contribution for L=           1  read in
    real space projection operators read in
  non local Contribution for L=           1  read in
    real space projection operators read in
    PAW grid and wavefunctions read in
 
   number of l-projection  operators is LMAX  =           6
   number of lm-projection operators is LMMAX =          18
 
 Optimization of the real space projectors (new method)

 maximal supplied QI-value         = 16.25
 optimisation between [QCUT,QGAM] = [  8.45, 16.90] = [ 20.00, 80.00] Ry 
 Optimized for a Real-space Cutoff    1.62 Angstroem

   l    n(q)    QCUT    max X(q) W(low)/X(q) W(high)/X(q)  e(spline) 
   2      7     8.451     4.974    0.39E-04    0.11E-03    0.44E-07
   2      7     8.451    13.453    0.28E-03    0.77E-03    0.23E-06
   0      8     8.451    13.269    0.22E-04    0.90E-05    0.51E-08
   0      8     8.451    44.490    0.95E-04    0.29E-04    0.66E-07
   1      8     8.451     5.266    0.75E-04    0.48E-04    0.20E-07
   1      8     8.451     7.318    0.28E-03    0.28E-03    0.99E-07
 Optimization of the real space projectors (new method)

 maximal supplied QI-value         = 15.68
 optimisation between [QCUT,QGAM] = [  8.47, 16.94] = [ 20.09, 80.35] Ry 
 Optimized for a Real-space Cutoff    1.57 Angstroem

   l    n(q)    QCUT    max X(q) W(low)/X(q) W(high)/X(q)  e(spline) 
   2      7     8.470     3.829    0.30E-04    0.80E-04    0.36E-07
   2      7     8.470    20.330    0.36E-03    0.83E-03    0.26E-06
   0      8     8.470    16.667    0.17E-04    0.93E-05    0.58E-08
   0      8     8.470    80.503    0.29E-03    0.32E-03    0.56E-07
   1      7     8.470     6.677    0.22E-04    0.87E-04    0.25E-07
   1      7     8.470     8.951    0.19E-03    0.30E-03    0.66E-07
  PAW Cu                                :
 energy of atom  1       EATOM=-1393.0707
 kinetic energy error for atom=    0.0388 (will be added to EATOM!!)
  PAW Ag                                :
 energy of atom  2       EATOM=-1038.4392
 kinetic energy error for atom=    0.0559 (will be added to EATOM!!)
 
 
 POSCAR: Cu Ag                                   
  positions in cartesian coordinates
  No initial velocities read in
 exchange correlation table for  LEXCH =        7
   RHO(1)=    0.500       N(1)  =     2000
   RHO(2)=  100.500       N(2)  =     4000

 VTST: version 3.0b, (11/11/12)

 CHAIN: initializing optimizer
 
 OPT: Using VASP Conjugate-Gradient optimizer
 CHAIN: Read ICHAIN            0
 
 POSCAR: Cu Ag                                   
  positions in cartesian coordinates
  No initial velocities read in
 


--------------------------------------------------------------------------------------------------------


 ion  position               nearest neighbor table
   1  0.723  0.573  0.500-   7 2.64  37 2.67   9 2.68  21 2.70  17 2.71  13 2.71
   2  0.573  0.723  0.500-   4 2.64  37 2.67  11 2.68  21 2.70  19 2.71  13 2.71
   3  0.278  0.573  0.500-   5 2.64  35 2.67  10 2.67  22 2.69  18 2.71  14 2.72
   4  0.426  0.722  0.500-   2 2.64  35 2.67  11 2.68  22 2.69  19 2.71  14 2.72
   5  0.278  0.427  0.500-   3 2.64  34 2.67  10 2.67  23 2.69  18 2.70  15 2.72
   6  0.427  0.278  0.500-   8 2.64  34 2.67  12 2.67  23 2.69  20 2.70  15 2.72
   7  0.722  0.426  0.500-   1 2.64  38 2.67   9 2.68  24 2.69  17 2.71  16 2.72
   8  0.573  0.278  0.500-   6 2.64  38 2.67  12 2.67  24 2.69  20 2.71  16 2.72
   9  0.669  0.500  0.618-   7 2.68   1 2.68  16 2.70  25 2.70  13 2.71  28 2.71  37 3.04  38 3.04
                            33 3.06
  10  0.331  0.500  0.618-   5 2.67   3 2.67  14 2.70  15 2.71  27 2.71  26 2.72  34 3.04  35 3.04
                            33 3.06
  11  0.500  0.669  0.618-   4 2.68   2 2.68  14 2.70  25 2.70  13 2.71  26 2.71  37 3.04  35 3.04
                            33 3.06
  12  0.500  0.331  0.618-   6 2.67   8 2.67  16 2.70  15 2.71  27 2.71  28 2.72  34 3.04  38 3.04
                            33 3.06
  13  0.649  0.649  0.608-  25 2.58   9 2.71  11 2.71   1 2.71   2 2.71  37 2.72
  14  0.352  0.648  0.609-  26 2.58  11 2.70  10 2.70  35 2.72   3 2.72   4 2.72
  15  0.351  0.351  0.608-  27 2.58  10 2.71  12 2.71   6 2.72   5 2.72  34 2.72
  16  0.648  0.352  0.609-  28 2.58   9 2.70  12 2.70  38 2.72   8 2.72   7 2.72
  17  0.667  0.500  0.381-  32 2.70  21 2.70  24 2.70  29 2.70   1 2.71   7 2.71  36 3.01  38 3.02
                            37 3.02
  18  0.333  0.500  0.381-  30 2.70  31 2.70  22 2.70  23 2.70   5 2.70   3 2.71  36 3.01  35 3.02
                            34 3.02
  19  0.500  0.667  0.381-  30 2.70  21 2.70  22 2.70  29 2.70   2 2.71   4 2.71  36 3.01  35 3.02
                            37 3.02
  20  0.500  0.333  0.381-  32 2.70  31 2.70  24 2.70  23 2.70   6 2.70   8 2.71  36 3.01  38 3.02
                            34 3.02
  21  0.648  0.648  0.394-  29 2.65  37 2.68   2 2.70   1 2.70  17 2.70  19 2.70
  22  0.351  0.649  0.394-  30 2.65  35 2.69   4 2.69   3 2.69  19 2.70  18 2.70
  23  0.352  0.352  0.394-  31 2.65  34 2.68   5 2.69   6 2.69  20 2.70  18 2.70
  24  0.649  0.351  0.394-  32 2.65  38 2.69   7 2.69   8 2.69  17 2.70  20 2.70
  25  0.576  0.576  0.708-  13 2.58   9 2.70  11 2.70  33 2.72  28 2.73  26 2.73
  26  0.425  0.575  0.708-  14 2.58  33 2.70  11 2.71  10 2.72  25 2.73  27 2.73
  27  0.423  0.423  0.708-  15 2.58  12 2.71  10 2.71  33 2.72  28 2.73  26 2.73
  28  0.575  0.425  0.708-  16 2.58  33 2.70   9 2.71  12 2.72  25 2.73  27 2.73
  29  0.575  0.575  0.289-  21 2.65  36 2.68  32 2.70  30 2.70  17 2.70  19 2.70
  30  0.425  0.575  0.289-  22 2.65  36 2.69  19 2.70  18 2.70  29 2.70  31 2.70
  31  0.425  0.425  0.289-  23 2.65  36 2.68  20 2.70  18 2.70  32 2.70  30 2.70
  32  0.575  0.425  0.289-  24 2.65  36 2.69  17 2.70  20 2.70  29 2.70  31 2.70
  33  0.500  0.500  0.603-  38 2.64  35 2.64  34 2.64  37 2.64  28 2.70  26 2.70  25 2.72  27 2.72
                             9 3.06  11 3.06  12 3.06  10 3.06
  34  0.426  0.426  0.500-  33 2.64  35 2.67  38 2.67   6 2.67   5 2.67  36 2.68  23 2.68  15 2.72
                            20 3.02  18 3.02  12 3.04  10 3.04
  35  0.426  0.574  0.500-  33 2.64   3 2.67  37 2.67  34 2.67   4 2.67  36 2.68  22 2.69  14 2.72
                            19 3.02  18 3.02  11 3.04  10 3.04
  36  0.500  0.500  0.394-  38 2.68  35 2.68  37 2.68  34 2.68  31 2.68  29 2.68  32 2.69  30 2.69
                            17 3.01  19 3.01  20 3.01  18 3.01
  37  0.574  0.574  0.500-  33 2.64  38 2.67  35 2.67   1 2.67   2 2.67  36 2.68  21 2.68  13 2.72
                            17 3.02  19 3.02   9 3.04  11 3.04
  38  0.574  0.426  0.500-  33 2.64   8 2.67  37 2.67  34 2.67   7 2.67  36 2.68  24 2.69  16 2.72
                            17 3.02  20 3.02   9 3.04  12 3.04
 

IMPORTANT INFORMATION: All symmetrisations will be switched off!
NOSYMM: (Re-)initialisation of all symmetry stuff for point group C_1.

 
 
 KPOINTS: Automatic Mesh                          

Automatic generation of k-mesh.
Space group operators:
 irot       det(A)        alpha          n_x          n_y          n_z        tau_x        tau_y        tau_z
    1     1.000000     0.000000     1.000000     0.000000     0.000000     0.000000     0.000000     0.000000
 
 Subroutine IBZKPT returns following result:
 ===========================================
 
 Found      1 irreducible k-points:
 
 Following reciprocal coordinates:
            Coordinates               Weight
  0.000000  0.000000  0.000000      1.000000
 
 Following cartesian coordinates:
            Coordinates               Weight
  0.000000  0.000000  0.000000      1.000000
 


--------------------------------------------------------------------------------------------------------




 Dimension of arrays:
   k-points           NKPTS =      1   k-points in BZ     NKDIM =      1   number of bands    NBANDS=    250
   number of dos      NEDOS =    301   number of ions     NIONS =     38
   non local maximal  LDIM  =      6   non local SUM 2l+1 LMDIM =     18
   total plane-waves  NPLWV = 512000
   max r-space proj   IRMAX =   1611   max aug-charges    IRDMAX=   4516
   dimension x,y,z NGX =    80 NGY =   80 NGZ =   80
   dimension x,y,z NGXF=   160 NGYF=  160 NGZF=  160
   support grid    NGXF=   160 NGYF=  160 NGZF=  160
   ions per type =              32   6
 NGX,Y,Z   is equivalent  to a cutoff of   7.39,  7.39,  7.39 a.u.
 NGXF,Y,Z  is equivalent  to a cutoff of  14.78, 14.78, 14.78 a.u.


 I would recommend the setting:
   dimension x,y,z NGX =    73 NGY =   73 NGZ =   73
 SYSTEM =  Pt cube particle                        
 POSCAR =  Cu Ag                                   

 Startparameter for this run:
   NWRITE =      2    write-flag & timer
   PREC   = normal    normal or accurate (medium, high low for compatibility)
   ISTART =      0    job   : 0-new  1-cont  2-samecut
   ICHARG =      2    charge: 1-file 2-atom 10-const
   ISPIN  =      1    spin polarized calculation?
   LNONCOLLINEAR =      F non collinear calculations
   LSORBIT =      F    spin-orbit coupling
   INIWAV =      1    electr: 0-lowe 1-rand  2-diag
   LASPH  =      F    aspherical Exc in radial PAW
   METAGGA=      F    non-selfconsistent MetaGGA calc.

 Electronic Relaxation 1
   ENCUT  =  274.0 eV  20.14 Ry    4.49 a.u.  24.29 24.29 24.29*2*pi/ulx,y,z
   ENINI  =  274.0     initial cutoff
   ENAUG  =  516.5 eV  augmentation charge cutoff
   NELM   =     60;   NELMIN=  2; NELMDL= -5     # of ELM steps 
   EDIFF  = 0.1E-05   stopping-criterion for ELM
   LREAL  =      T    real-space projection
   NLSPLINE    = F    spline interpolate recip. space projectors
   LCOMPAT=      F    compatible to vasp.4.4
   GGA_COMPAT  = T    GGA compatible to vasp.4.4-vasp.4.6
   LMAXPAW     = -100 max onsite density
   LMAXMIX     =    2 max onsite mixed and CHGCAR
   VOSKOWN=      0    Vosko Wilk Nusair interpolation
   ROPT   =   -0.00050  -0.00050
 Ionic relaxation
   EDIFFG = -.1E-01   stopping-criterion for IOM
   NSW    =    250    number of steps for IOM
   NBLOCK =      1;   KBLOCK =    250    inner block; outer block 
   IBRION =      2    ionic relax: 0-MD 1-quasi-New 2-CG
   NFREE  =      1    steps in history (QN), initial steepest desc. (CG)
   ISIF   =      0    stress and relaxation
   IWAVPR =     11    prediction:  0-non 1-charg 2-wave 3-comb
   ISYM   =      0    0-nonsym 1-usesym 2-fastsym
   LCORR  =      T    Harris-Foulkes like correction to forces

   POTIM  = 0.1000    time-step for ionic-motion
   TEIN   =    0.0    initial temperature
   TEBEG  =    0.0;   TEEND  =   0.0 temperature during run
   SMASS  =  -3.00    Nose mass-parameter (am)
   estimated Nose-frequenzy (Omega)   =  0.10E-29 period in steps =****** mass=  -0.740E-26a.u.
   SCALEE = 1.0000    scale energy and forces
   NPACO  =    256;   APACO  = 16.0  distance and # of slots for P.C.
   PSTRESS=    0.0 pullay stress

  Mass of Ions in am
   POMASS =  63.55107.87
  Ionic Valenz
   ZVAL   =  11.00 11.00
  Atomic Wigner-Seitz radii
   RWIGS  =  -1.00 -1.00
  virtual crystal weights 
   VCA    =   1.00  1.00
   NELECT =     418.0000    total number of electrons
   NUPDOWN=      -1.0000    fix difference up-down

 DOS related values:
   EMIN   =  10.00;   EMAX   =-10.00  energy-range for DOS
   EFERMI =   0.00
   ISMEAR =     0;   SIGMA  =   0.20  broadening in eV -4-tet -1-fermi 0-gaus

 Electronic relaxation 2 (details)
   IALGO  =     68    algorithm
   LDIAG  =      T    sub-space diagonalisation (order eigenvalues)
   LSUBROT=      T    optimize rotation matrix (better conditioning)
   TURBO    =      0    0=normal 1=particle mesh
   IRESTART =      0    0=no restart 2=restart with 2 vectors
   NREBOOT  =      0    no. of reboots
   NMIN     =      0    reboot dimension
   EREF     =   0.00    reference energy to select bands
   IMIX   =      4    mixing-type and parameters
     AMIX     =   0.40;   BMIX     =  1.00
     AMIX_MAG =   1.60;   BMIX_MAG =  1.00
     AMIN     =   0.10
     WC   =   100.;   INIMIX=   1;  MIXPRE=   1;  MAXMIX= -45

 Intra band minimization:
   WEIMIN = 0.0010     energy-eigenvalue tresh-hold
   EBREAK =  0.10E-08  absolut break condition
   DEPER  =   0.30     relativ break condition  

   TIME   =   0.40     timestep for ELM

  volume/ion in A,a.u.               =     153.47      1035.69
  Fermi-wavevector in a.u.,A,eV,Ry     =   0.680030  1.285069  6.291880  0.462440
  Thomas-Fermi vector in A             =   1.758400
 
 Write flags
   LWAVE  =      F    write WAVECAR
   LCHARG =      F    write CHGCAR
   LVTOT  =      F    write LOCPOT, total local potential
   LVHAR  =      F    write LOCPOT, Hartree potential only
   LELF   =      F    write electronic localiz. function (ELF)
   LORBIT =      0    0 simple, 1 ext, 2 COOP (PROOUT)


 Dipole corrections
   LMONO  =      F    monopole corrections only (constant potential shift)
   LDIPOL =      F    correct potential (dipole corrections)
   IDIPOL =      0    1-x, 2-y, 3-z, 4-all directions 
   EPSILON=  1.0000000 bulk dielectric constant

 Exchange correlation treatment:
   GGA     =    --    GGA type
   LEXCH   =     7    internal setting for exchange type
   VOSKOWN=      0    Vosko Wilk Nusair interpolation
   LHFCALC =     F    Hartree Fock is set to
   LHFONE  =     F    Hartree Fock one center treatment
   AEXX    =    0.0000 exact exchange contribution

 Linear response parameters
   LEPSILON=     F    determine dielectric tensor
   LRPA    =     F    only Hartree local field effects (RPA)
   LNABLA  =     F    use nabla operator in PAW spheres
   LVEL    =     F    velocity operator in full k-point grid
   LINTERFAST=   F  fast interpolation
   KINTER  =     0    interpolate to denser k-point grid
   CSHIFT  =0.1000    complex shift for real part using Kramers Kronig
   OMEGAMAX=  -1.0    maximum frequency
   DEG_THRESHOLD= 0.2000000E-02 threshold for treating states as degnerate
   RTIME   =    0.100 relaxation time in fs

 Orbital magnetization related:
   ORBITALMAG=     F  switch on orbital magnetization
   LCHIMAG   =     F  perturbation theory with respect to B field
   DQ        =  0.001000  dq finite difference perturbation B field



--------------------------------------------------------------------------------------------------------


 conjugate gradient relaxation of ions
 charge density and potential will be updated during run
 non-spin polarized calculation
 RMM-DIIS sequential band-by-band and
  variant of blocked Davidson during initial phase
 perform sub-space diagonalisation
    before iterative eigenvector-optimisation
 modified Broyden-mixing scheme, WC =      100.0
 initial mixing is a Kerker type mixing with AMIX =  0.4000 and BMIX =      1.0000
 Hartree-type preconditioning will be used
 using additional bands           41
 real space projection scheme for non local part
 use partial core corrections
 calculate Harris-corrections to forces 
   (improved forces if not selfconsistent)
 use gradient corrections 
 use of overlap-Matrix (Vanderbilt PP)
 Gauss-broadening in eV      SIGMA  =   0.20


--------------------------------------------------------------------------------------------------------


  energy-cutoff  :      274.00
  volume of cell :     5832.00
      direct lattice vectors                 reciprocal lattice vectors
    18.000000000  0.000000000  0.000000000     0.055555556  0.000000000  0.000000000
     0.000000000 18.000000000  0.000000000     0.000000000  0.055555556  0.000000000
     0.000000000  0.000000000 18.000000000     0.000000000  0.000000000  0.055555556

  length of vectors
    18.000000000 18.000000000 18.000000000     0.055555556  0.055555556  0.055555556


 
 k-points in units of 2pi/SCALE and weight: Automatic Mesh                          
   0.00000000  0.00000000  0.00000000       1.000
 
 k-points in reciprocal lattice and weights: Automatic Mesh                          
   0.00000000  0.00000000  0.00000000       1.000
 
 position of ions in fractional coordinates (direct lattice) 
   0.72257430  0.57309990  0.50020326
   0.57310093  0.72257403  0.50020304
   0.27768266  0.57328361  0.50008765
   0.42649001  0.72224946  0.50032579
   0.27752107  0.42669729  0.49967158
   0.42669656  0.27752145  0.49967177
   0.72224904  0.42648933  0.50032604
   0.57328263  0.27768254  0.50008798
   0.66896875  0.49995173  0.61818177
   0.33052645  0.49955494  0.61777083
   0.49995230  0.66896893  0.61818181
   0.49955423  0.33052680  0.61777078
   0.64859535  0.64859483  0.60775332
   0.35179083  0.64787838  0.60867190
   0.35095914  0.35095981  0.60785692
   0.64787761  0.35179055  0.60867192
   0.66669582  0.49992260  0.38142030
   0.33324668  0.50023761  0.38106483
   0.49992331  0.66669587  0.38141995
   0.50023715  0.33324678  0.38106528
   0.64822278  0.64822213  0.39408735
   0.35147837  0.64865839  0.39385916
   0.35173155  0.35173198  0.39365192
   0.64865782  0.35147791  0.39385971
   0.57638974  0.57638949  0.70826448
   0.42473085  0.57491493  0.70837530
   0.42323825  0.42323859  0.70830097
   0.57491455  0.42473071  0.70837515
   0.57501197  0.57501134  0.28935832
   0.42501837  0.57524295  0.28921835
   0.42516456  0.42516441  0.28927688
   0.57524302  0.42501779  0.28921884
   0.49988834  0.49988836  0.60266917
   0.42580374  0.42580397  0.49972068
   0.42585642  0.57400848  0.49972903
   0.49998908  0.49998890  0.39412654
   0.57405800  0.57405761  0.49977677
   0.57400827  0.42585608  0.49972915
 
 position of ions in cartesian coordinates  (Angst):
  13.00633747 10.31579822  9.00365866
  10.31581667 13.00633249  9.00365472
   4.99828780 10.31910502  9.00157776
   7.67682021 13.00049019  9.00586429
   4.99537917  7.68055130  8.99408838
   7.68053801  4.99538613  8.99409187
  13.00048266  7.67680798  9.00586865
  10.31908741  4.99828575  9.00158356
  12.04143751  8.99913108 11.12727184
   5.94947613  8.99198896 11.11987502
   8.99914148 12.04144079 11.12727253
   8.99197607  5.94948237 11.11987410
  11.67471623 11.67470686 10.93955981
   6.33223494 11.66181076 10.95609424
   6.31726444  6.31727664 10.94142461
  11.66179703  6.33222994 10.95609447
  12.00052481  8.99860676  6.86556540
   5.99844026  9.00427695  6.85916701
   8.99861953 12.00052564  6.86555918
   9.00426868  5.99844205  6.85917509
  11.66801009 11.66799837  7.09357232
   6.32661059 11.67585109  7.08946483
   6.33116790  6.33117567  7.08573450
  11.67584071  6.32660234  7.08947485
  10.37501533 10.37501079 12.74876067
   7.64515530 10.34846866 12.75075535
   7.61828842  7.61829458 12.74941755
  10.34846196  7.64515274 12.75075278
  10.35021543 10.35020413  5.20844968
   7.65033064 10.35437318  5.20593036
   7.65296212  7.65295930  5.20698390
  10.35437433  7.65032030  5.20593913
   8.99799016  8.99799047 10.84804503
   7.66446731  7.66447142  8.99497225
   7.66541553 10.33215264  8.99512254
   8.99980341  8.99980023  7.09427770
  10.33304403 10.33303698  8.99598177
  10.33214892  7.66540948  8.99512470
 


--------------------------------------------------------------------------------------------------------


 use parallel FFT for wavefunctions z direction half grid
 k-point  1 :   0.0000 0.0000 0.0000  plane waves:   30123

 maximum and minimum number of plane-waves per node :      1891     1876

 maximum number of plane-waves:     30123
 maximum index in each direction: 
   IXMAX=   24   IYMAX=   24   IZMAX=   24
   IXMIN=  -24   IYMIN=  -24   IZMIN=    0

 WARNING: aliasing errors must be expected set NGX to  98 to avoid them
 WARNING: aliasing errors must be expected set NGY to  98 to avoid them
 WARNING: aliasing errors must be expected set NGZ to  98 to avoid them
 aliasing errors are usually negligible using standard VASP settings
 and one can safely disregard these warnings

 real space projection operators:
  total allocation   :       7963.45 KBytes
  max/ min on nodes  :        511.17        474.05


 parallel 3D FFT for wavefunctions:
    minimum data exchange during FFTs selected (reduces bandwidth)
 parallel 3D FFT for charge:
    minimum data exchange during FFTs selected (reduces bandwidth)


 total amount of memory used by VASP on root node    48067. kBytes
========================================================================

   base      :      30000. kBytes
   nonlr-proj:        620. kBytes
   fftplans  :       5076. kBytes
   grid      :       8518. kBytes
   one-center:         23. kBytes
   wavefun   :       3830. kBytes
 
 Broyden mixing: mesh for mixing (old mesh)
   NGX = 49   NGY = 49   NGZ = 49
  (NGX  =160   NGY  =160   NGZ  =160)
  gives a total of 117649 points

 initial charge density was supplied:
 charge density of overlapping atoms calculated
 number of electron     418.0000000 magnetization 
 keeping initial charge density in first step


--------------------------------------------------------------------------------------------------------


 Maximum index for non-local projection operator          148
 Maximum index for augmentation-charges          261 (set IRDMAX)


--------------------------------------------------------------------------------------------------------


 First call to EWALD:  gamma=   0.098
 Maximum number of real-space cells 3x 3x 3
 Maximum number of reciprocal cells 3x 3x 3

 FEWALD executed in parallel
    FEWALD:  cpu time    0.00: real time    0.00


----------------------------------------- Iteration    1(   1)  ---------------------------------------


    POTLOK:  cpu time    0.17: real time    0.17
    SETDIJ:  cpu time    0.01: real time    0.01
     EDDAV:  cpu time    1.79: real time    1.80
       DOS:  cpu time    0.00: real time    0.00
    --------------------------------------------
      LOOP:  cpu time    1.98: real time    2.00

 eigenvalue-minimisations  :   580
 total energy-change (2. order) : 0.2151736E+04  (-0.1163733E+05)
 number of electron     418.0000000 magnetization 
 augmentation part      418.0000000 magnetization 

 Free energy of the ion-electron system (eV)
  ---------------------------------------------------
  alpha Z        PSCENC =       334.47473255
  Ewald energy   TEWEN  =     80910.05328024
  -1/2 Hartree   DENC   =   -126715.27621410
  -exchange  EXHF       =         0.00000000
  -V(xc)+E(xc)   XCENC  =      1301.19036282
  PAW double counting   =     39879.30097310   -44228.02017195
  entropy T*S    EENTRO =        -0.46361775
  eigenvalues    EBANDS =      -136.84474476
  atomic energy  EATOM  =     50807.32091778
  ---------------------------------------------------
  free energy    TOTEN  =      2151.73551792 eV

  energy without entropy =     2152.19913568  energy(sigma->0) =     2151.96732680


--------------------------------------------------------------------------------------------------------




----------------------------------------- Iteration    1(   2)  ---------------------------------------


     EDDAV:  cpu time    1.84: real time    1.84
       DOS:  cpu time    0.00: real time    0.00
    --------------------------------------------
      LOOP:  cpu time    1.84: real time    1.85

 eigenvalue-minimisations  :   598
 total energy-change (2. order) :-0.2027115E+04  (-0.1940636E+04)
 number of electron     418.0000000 magnetization 
 augmentation part      418.0000000 magnetization 

 Free energy of the ion-electron system (eV)
  ---------------------------------------------------
  alpha Z        PSCENC =       334.47473255
  Ewald energy   TEWEN  =     80910.05328024
  -1/2 Hartree   DENC   =   -126715.27621410
  -exchange  EXHF       =         0.00000000
  -V(xc)+E(xc)   XCENC  =      1301.19036282
  PAW double counting   =     39879.30097310   -44228.02017195
  entropy T*S    EENTRO =        -0.44965349
  eigenvalues    EBANDS =     -2163.97321093
  atomic energy  EATOM  =     50807.32091778
  ---------------------------------------------------
  free energy    TOTEN  =       124.62101602 eV

  energy without entropy =      125.07066951  energy(sigma->0) =      124.84584276


--------------------------------------------------------------------------------------------------------




----------------------------------------- Iteration    1(   3)  ---------------------------------------


     EDDAV:  cpu time    2.03: real time    2.03
       DOS:  cpu time    0.00: real time    0.00
    --------------------------------------------
      LOOP:  cpu time    2.03: real time    2.04

 eigenvalue-minimisations  :   672
 total energy-change (2. order) :-0.2247404E+03  (-0.2003345E+03)
 number of electron     418.0000000 magnetization 
 augmentation part      418.0000000 magnetization 

 Free energy of the ion-electron system (eV)
  ---------------------------------------------------
  alpha Z        PSCENC =       334.47473255
  Ewald energy   TEWEN  =     80910.05328024
  -1/2 Hartree   DENC   =   -126715.27621410
  -exchange  EXHF       =         0.00000000
  -V(xc)+E(xc)   XCENC  =      1301.19036282
  PAW double counting   =     39879.30097310   -44228.02017195
  entropy T*S    EENTRO =        -0.74310363
  eigenvalues    EBANDS =     -2388.42018184
  atomic energy  EATOM  =     50807.32091778
  ---------------------------------------------------
  free energy    TOTEN  =      -100.11940504 eV

  energy without entropy =      -99.37630140  energy(sigma->0) =      -99.74785322


--------------------------------------------------------------------------------------------------------




----------------------------------------- Iteration    1(   4)  ---------------------------------------


     EDDAV:  cpu time    1.71: real time    1.71
       DOS:  cpu time    0.00: real time    0.00
    --------------------------------------------
      LOOP:  cpu time    1.71: real time    1.71

 eigenvalue-minimisations  :   544
 total energy-change (2. order) :-0.1405977E+02  (-0.1387847E+02)
 number of electron     418.0000000 magnetization 
 augmentation part      418.0000000 magnetization 

 Free energy of the ion-electron system (eV)
  ---------------------------------------------------
  alpha Z        PSCENC =       334.47473255
  Ewald energy   TEWEN  =     80910.05328024
  -1/2 Hartree   DENC   =   -126715.27621410
  -exchange  EXHF       =         0.00000000
  -V(xc)+E(xc)   XCENC  =      1301.19036282
  PAW double counting   =     39879.30097310   -44228.02017195
  entropy T*S    EENTRO =        -0.75014593
  eigenvalues    EBANDS =     -2402.47291429
  atomic energy  EATOM  =     50807.32091778
  ---------------------------------------------------
  free energy    TOTEN  =      -114.17917978 eV

  energy without entropy =     -113.42903385  energy(sigma->0) =     -113.80410682


--------------------------------------------------------------------------------------------------------




----------------------------------------- Iteration    1(   5)  ---------------------------------------


     EDDAV:  cpu time    1.73: real time    1.73
       DOS:  cpu time    0.00: real time    0.00
    CHARGE:  cpu time    0.11: real time    0.11
    MIXING:  cpu time    0.01: real time    0.01
    --------------------------------------------
      LOOP:  cpu time    1.85: real time    1.85

 eigenvalue-minimisations  :   552
 total energy-change (2. order) :-0.1933769E+00  (-0.1930078E+00)
 number of electron     417.9998948 magnetization 
 augmentation part      252.2756017 magnetization 

 Broyden mixing:
  rms(total) = 0.27357E+01    rms(broyden)= 0.27351E+01
  rms(prec ) = 0.30468E+01
  weight for this iteration     100.00

 Free energy of the ion-electron system (eV)
  ---------------------------------------------------
  alpha Z        PSCENC =       334.47473255
  Ewald energy   TEWEN  =     80910.05328024
  -1/2 Hartree   DENC   =   -126715.27621410
  -exchange  EXHF       =         0.00000000
  -V(xc)+E(xc)   XCENC  =      1301.19036282
  PAW double counting   =     39879.30097310   -44228.02017195
  entropy T*S    EENTRO =        -0.75054350
  eigenvalues    EBANDS =     -2402.66589367
  atomic energy  EATOM  =     50807.32091778
  ---------------------------------------------------
  free energy    TOTEN  =      -114.37255673 eV

  energy without entropy =     -113.62201323  energy(sigma->0) =     -113.99728498


--------------------------------------------------------------------------------------------------------




----------------------------------------- Iteration    1(   6)  ---------------------------------------


    POTLOK:  cpu time    0.15: real time    0.15
    SETDIJ:  cpu time    0.00: real time    0.00
    EDDIAG:  cpu time    0.27: real time    0.27
  RMM-DIIS:  cpu time    0.87: real time    0.87
    ORTHCH:  cpu time    0.03: real time    0.03
       DOS:  cpu time    0.00: real time    0.00
    CHARGE:  cpu time    0.10: real time    0.10
    MIXING:  cpu time    0.00: real time    0.00
    --------------------------------------------
      LOOP:  cpu time    1.43: real time    1.44

 eigenvalue-minimisations  :   501
 total energy-change (2. order) : 0.5249971E+01  (-0.2063928E+02)
 number of electron     417.9998833 magnetization 
 augmentation part      271.6652864 magnetization 

 Broyden mixing:
  rms(total) = 0.17032E+01    rms(broyden)= 0.17026E+01
  rms(prec ) = 0.18900E+01
  weight for this iteration     100.00

 eigenvalues of (default mixing * dielectric matrix)
  average eigenvalue GAMMA=   0.6251
  0.6251

 Free energy of the ion-electron system (eV)
  ---------------------------------------------------
  alpha Z        PSCENC =       334.47473255
  Ewald energy   TEWEN  =     80910.05328024
  -1/2 Hartree   DENC   =   -126134.50012378
  -exchange  EXHF       =         0.00000000
  -V(xc)+E(xc)   XCENC  =      1270.13799785
  PAW double counting   =     38984.05543480   -43150.22101800
  entropy T*S    EENTRO =        -0.79676448
  eigenvalues    EBANDS =     -3129.64704286
  atomic energy  EATOM  =     50807.32091778
  ---------------------------------------------------
  free energy    TOTEN  =      -109.12258590 eV

  energy without entropy =     -108.32582142  energy(sigma->0) =     -108.72420366


--------------------------------------------------------------------------------------------------------




----------------------------------------- Iteration    1(   7)  ---------------------------------------


    POTLOK:  cpu time    0.15: real time    0.15
    SETDIJ:  cpu time    0.01: real time    0.00
    EDDIAG:  cpu time    0.26: real time    0.26
  RMM-DIIS:  cpu time    0.86: real time    0.87
    ORTHCH:  cpu time    0.03: real time    0.03
       DOS:  cpu time    0.00: real time    0.00
    CHARGE:  cpu time    0.10: real time    0.10
    MIXING:  cpu time    0.00: real time    0.00
    --------------------------------------------
      LOOP:  cpu time    1.43: real time    1.43

 eigenvalue-minimisations  :   500
 total energy-change (2. order) : 0.9461408E+01  (-0.4181180E+01)
 number of electron     417.9998888 magnetization 
 augmentation part      264.5524958 magnetization 

 Broyden mixing:
  rms(total) = 0.23052E+00    rms(broyden)= 0.23010E+00
  rms(prec ) = 0.30208E+00
  weight for this iteration     100.00

 eigenvalues of (default mixing * dielectric matrix)
  average eigenvalue GAMMA=   0.8672
  1.1316  0.6029

 Free energy of the ion-electron system (eV)
  ---------------------------------------------------
  alpha Z        PSCENC =       334.47473255
  Ewald energy   TEWEN  =     80910.05328024
  -1/2 Hartree   DENC   =   -126398.49200699
  -exchange  EXHF       =         0.00000000
  -V(xc)+E(xc)   XCENC  =      1280.55853280
  PAW double counting   =     39485.19017645   -43798.94466823
  entropy T*S    EENTRO =        -0.65902751
  eigenvalues    EBANDS =     -2719.16311481
  atomic energy  EATOM  =     50807.32091778
  ---------------------------------------------------
  free energy    TOTEN  =       -99.66117772 eV

  energy without entropy =      -99.00215022  energy(sigma->0) =      -99.33166397


--------------------------------------------------------------------------------------------------------




----------------------------------------- Iteration    1(   8)  ---------------------------------------


    POTLOK:  cpu time    0.15: real time    0.15
    SETDIJ:  cpu time    0.00: real time    0.00
    EDDIAG:  cpu time    0.26: real time    0.26
  RMM-DIIS:  cpu time    0.86: real time    0.86
    ORTHCH:  cpu time    0.03: real time    0.03
       DOS:  cpu time    0.00: real time    0.00
    CHARGE:  cpu time    0.10: real time    0.10
    MIXING:  cpu time    0.00: real time    0.00
    --------------------------------------------
      LOOP:  cpu time    1.43: real time    1.46

 eigenvalue-minimisations  :   500
 total energy-change (2. order) : 0.2484352E+00  (-0.1060005E+00)
 number of electron     417.9998889 magnetization 
 augmentation part      263.9554870 magnetization 

 Broyden mixing:
  rms(total) = 0.19571E+00    rms(broyden)= 0.19567E+00
  rms(prec ) = 0.22374E+00
  weight for this iteration     100.00

 eigenvalues of (default mixing * dielectric matrix)
  average eigenvalue GAMMA=   0.9395
  1.4926  0.6630  0.6630

 Free energy of the ion-electron system (eV)
  ---------------------------------------------------
  alpha Z        PSCENC =       334.47473255
  Ewald energy   TEWEN  =     80910.05328024
  -1/2 Hartree   DENC   =   -126444.85722047
  -exchange  EXHF       =         0.00000000
  -V(xc)+E(xc)   XCENC  =      1279.84337470
  PAW double counting   =     39632.05202159   -43979.17121925
  entropy T*S    EENTRO =        -0.69418620
  eigenvalues    EBANDS =     -2638.43444343
  atomic energy  EATOM  =     50807.32091778
  ---------------------------------------------------
  free energy    TOTEN  =       -99.41274249 eV

  energy without entropy =      -98.71855629  energy(sigma->0) =      -99.06564939


--------------------------------------------------------------------------------------------------------




----------------------------------------- Iteration    1(   9)  ---------------------------------------


    POTLOK:  cpu time    0.15: real time    0.15
    SETDIJ:  cpu time    0.00: real time    0.00
    EDDIAG:  cpu time    0.26: real time    0.26
  RMM-DIIS:  cpu time    0.86: real time    0.86
    ORTHCH:  cpu time    0.03: real time    0.03
       DOS:  cpu time    0.00: real time    0.00
    CHARGE:  cpu time    0.10: real time    0.10
    MIXING:  cpu time    0.00: real time    0.00
    --------------------------------------------
      LOOP:  cpu time    1.43: real time    1.43

 eigenvalue-minimisations  :   500
 total energy-change (2. order) : 0.7046958E-01  (-0.2453539E-01)
 number of electron     417.9998893 magnetization 
 augmentation part      264.1597463 magnetization 

 Broyden mixing:
  rms(total) = 0.12700E+00    rms(broyden)= 0.12699E+00
  rms(prec ) = 0.14638E+00
  weight for this iteration     100.00

 eigenvalues of (default mixing * dielectric matrix)
  average eigenvalue GAMMA=   1.0237
  2.0766  0.8464  0.6819  0.4899

 Free energy of the ion-electron system (eV)
  ---------------------------------------------------
  alpha Z        PSCENC =       334.47473255
  Ewald energy   TEWEN  =     80910.05328024
  -1/2 Hartree   DENC   =   -126446.09842676
  -exchange  EXHF       =         0.00000000
  -V(xc)+E(xc)   XCENC  =      1278.68216514
  PAW double counting   =     39677.63292798   -44036.45461781
  entropy T*S    EENTRO =        -0.68052345
  eigenvalues    EBANDS =     -2624.27272858
  atomic energy  EATOM  =     50807.32091778
  ---------------------------------------------------
  free energy    TOTEN  =       -99.34227292 eV

  energy without entropy =      -98.66174947  energy(sigma->0) =      -99.00201119


--------------------------------------------------------------------------------------------------------




----------------------------------------- Iteration    1(  10)  ---------------------------------------


    POTLOK:  cpu time    0.16: real time    0.16
    SETDIJ:  cpu time    0.00: real time    0.00
    EDDIAG:  cpu time    0.26: real time    0.26
  RMM-DIIS:  cpu time    0.86: real time    0.86
    ORTHCH:  cpu time    0.03: real time    0.03
       DOS:  cpu time    0.00: real time    0.00
    CHARGE:  cpu time    0.10: real time    0.10
    MIXING:  cpu time    0.00: real time    0.00
    --------------------------------------------
      LOOP:  cpu time    1.43: real time    1.43

 eigenvalue-minimisations  :   500
 total energy-change (2. order) : 0.3966562E-01  (-0.1068295E-01)
 number of electron     417.9998888 magnetization 
 augmentation part      264.3645126 magnetization 

 Broyden mixing:
  rms(total) = 0.53374E-01    rms(broyden)= 0.53361E-01
  rms(prec ) = 0.65561E-01
  weight for this iteration     100.00

 eigenvalues of (default mixing * dielectric matrix)
  average eigenvalue GAMMA=   1.2083
  2.5908  1.5608  0.7770  0.6718  0.4413

 Free energy of the ion-electron system (eV)
  ---------------------------------------------------
  alpha Z        PSCENC =       334.47473255
  Ewald energy   TEWEN  =     80910.05328024
  -1/2 Hartree   DENC   =   -126445.04688724
  -exchange  EXHF       =         0.00000000
  -V(xc)+E(xc)   XCENC  =      1278.07611737
  PAW double counting   =     39696.84965389   -44060.49585074
  entropy T*S    EENTRO =        -0.67436117
  eigenvalues    EBANDS =     -2619.86020997
  atomic energy  EATOM  =     50807.32091778
  ---------------------------------------------------
  free energy    TOTEN  =       -99.30260729 eV

  energy without entropy =      -98.62824612  energy(sigma->0) =      -98.96542671


--------------------------------------------------------------------------------------------------------




----------------------------------------- Iteration    1(  11)  ---------------------------------------


    POTLOK:  cpu time    0.16: real time    0.16
    SETDIJ:  cpu time    0.01: real time    0.00
    EDDIAG:  cpu time    0.26: real time    0.26
  RMM-DIIS:  cpu time    0.87: real time    0.87
    ORTHCH:  cpu time    0.03: real time    0.03
       DOS:  cpu time    0.00: real time    0.00
    CHARGE:  cpu time    0.10: real time    0.10
    MIXING:  cpu time    0.00: real time    0.00
    --------------------------------------------
      LOOP:  cpu time    1.43: real time    1.44

 eigenvalue-minimisations  :   500
 total energy-change (2. order) : 0.1952297E-01  (-0.3786521E-02)
 number of electron     417.9998888 magnetization 
 augmentation part      264.5401456 magnetization 

 Broyden mixing:
  rms(total) = 0.26213E-01    rms(broyden)= 0.26203E-01
  rms(prec ) = 0.35152E-01
  weight for this iteration     100.00

 eigenvalues of (default mixing * dielectric matrix)
  average eigenvalue GAMMA=   1.1830
  2.4641  1.7360  1.0160  0.7959  0.6470  0.4392

 Free energy of the ion-electron system (eV)
  ---------------------------------------------------
  alpha Z        PSCENC =       334.47473255
  Ewald energy   TEWEN  =     80910.05328024
  -1/2 Hartree   DENC   =   -126453.47353946
  -exchange  EXHF       =         0.00000000
  -V(xc)+E(xc)   XCENC  =      1277.55594268
  PAW double counting   =     39721.23089874   -44089.98193766
  entropy T*S    EENTRO =        -0.66734837
  eigenvalues    EBANDS =     -2605.79603081
  atomic energy  EATOM  =     50807.32091778
  ---------------------------------------------------
  free energy    TOTEN  =       -99.28308432 eV

  energy without entropy =      -98.61573594  energy(sigma->0) =      -98.94941013


--------------------------------------------------------------------------------------------------------




----------------------------------------- Iteration    1(  12)  ---------------------------------------


    POTLOK:  cpu time    0.16: real time    0.16
    SETDIJ:  cpu time    0.00: real time    0.00
    EDDIAG:  cpu time    0.26: real time    0.26
  RMM-DIIS:  cpu time    0.86: real time    0.86
    ORTHCH:  cpu time    0.03: real time    0.03
       DOS:  cpu time    0.00: real time    0.00
    CHARGE:  cpu time    0.10: real time    0.10
    MIXING:  cpu time    0.00: real time    0.00
    --------------------------------------------
      LOOP:  cpu time    1.43: real time    1.43

 eigenvalue-minimisations  :   500
 total energy-change (2. order) : 0.1608234E-02  (-0.1512867E-02)
 number of electron     417.9998889 magnetization 
 augmentation part      264.3869482 magnetization 

 Broyden mixing:
  rms(total) = 0.16019E-01    rms(broyden)= 0.16016E-01
  rms(prec ) = 0.22106E-01
  weight for this iteration     100.00

 eigenvalues of (default mixing * dielectric matrix)
  average eigenvalue GAMMA=   1.2088
  2.3910  2.3910  1.3403  0.7565  0.6764  0.4532  0.4532

 Free energy of the ion-electron system (eV)
  ---------------------------------------------------
  alpha Z        PSCENC =       334.47473255
  Ewald energy   TEWEN  =     80910.05328024
  -1/2 Hartree   DENC   =   -126470.78487750
  -exchange  EXHF       =         0.00000000
  -V(xc)+E(xc)   XCENC  =      1277.87912131
  PAW double counting   =     39726.30117928   -44096.02759646
  entropy T*S    EENTRO =        -0.66700036
  eigenvalues    EBANDS =     -2587.83123292
  atomic energy  EATOM  =     50807.32091778
  ---------------------------------------------------
  free energy    TOTEN  =       -99.28147608 eV

  energy without entropy =      -98.61447572  energy(sigma->0) =      -98.94797590


--------------------------------------------------------------------------------------------------------




----------------------------------------- Iteration    1(  13)  ---------------------------------------


    POTLOK:  cpu time    0.16: real time    0.16
    SETDIJ:  cpu time    0.00: real time    0.00
    EDDIAG:  cpu time    0.26: real time    0.26
  RMM-DIIS:  cpu time    0.86: real time    0.86
    ORTHCH:  cpu time    0.03: real time    0.03
       DOS:  cpu time    0.00: real time    0.00
    CHARGE:  cpu time    0.10: real time    0.10
    MIXING:  cpu time    0.00: real time    0.00
    --------------------------------------------
      LOOP:  cpu time    1.43: real time    1.48

 eigenvalue-minimisations  :   500
 total energy-change (2. order) :-0.3607758E-02  (-0.4438535E-03)
 number of electron     417.9998889 magnetization 
 augmentation part      264.3546380 magnetization 

 Broyden mixing:
  rms(total) = 0.19762E-01    rms(broyden)= 0.19761E-01
  rms(prec ) = 0.23244E-01
  weight for this iteration     100.00

 eigenvalues of (default mixing * dielectric matrix)
  average eigenvalue GAMMA=   1.2588
  3.0007  2.4941  1.3501  0.8483  0.8483  0.6357  0.4407  0.4526

 Free energy of the ion-electron system (eV)
  ---------------------------------------------------
  alpha Z        PSCENC =       334.47473255
  Ewald energy   TEWEN  =     80910.05328024
  -1/2 Hartree   DENC   =   -126483.14905778
  -exchange  EXHF       =         0.00000000
  -V(xc)+E(xc)   XCENC  =      1278.01103428
  PAW double counting   =     39723.92069467   -44093.18898835
  entropy T*S    EENTRO =        -0.66582841
  eigenvalues    EBANDS =     -2576.06186883
  atomic energy  EATOM  =     50807.32091778
  ---------------------------------------------------
  free energy    TOTEN  =       -99.28508384 eV

  energy without entropy =      -98.61925543  energy(sigma->0) =      -98.95216964


--------------------------------------------------------------------------------------------------------




----------------------------------------- Iteration    1(  14)  ---------------------------------------


    POTLOK:  cpu time    0.16: real time    0.16
    SETDIJ:  cpu time    0.00: real time    0.00
    EDDIAG:  cpu time    0.26: real time    0.26
  RMM-DIIS:  cpu time    0.86: real time    0.86
    ORTHCH:  cpu time    0.04: real time    0.04
       DOS:  cpu time    0.00: real time    0.00
    CHARGE:  cpu time    0.10: real time    0.10
    MIXING:  cpu time    0.00: real time    0.00
    --------------------------------------------
      LOOP:  cpu time    1.44: real time    1.44

 eigenvalue-minimisations  :   500
 total energy-change (2. order) :-0.6733816E-02  (-0.7975859E-03)
 number of electron     417.9998888 magnetization 
 augmentation part      264.4657648 magnetization 

 Broyden mixing:
  rms(total) = 0.68341E-02    rms(broyden)= 0.68278E-02
  rms(prec ) = 0.94703E-02
  weight for this iteration     100.00

 eigenvalues of (default mixing * dielectric matrix)
  average eigenvalue GAMMA=   1.3518
  3.4336  2.6068  1.3917  1.3917  0.9054  0.9054  0.6421  0.4504  0.4390

 Free energy of the ion-electron system (eV)
  ---------------------------------------------------
  alpha Z        PSCENC =       334.47473255
  Ewald energy   TEWEN  =     80910.05328024
  -1/2 Hartree   DENC   =   -126487.05715657
  -exchange  EXHF       =         0.00000000
  -V(xc)+E(xc)   XCENC  =      1277.89745831
  PAW double counting   =     39714.60595131   -44082.24849380
  entropy T*S    EENTRO =        -0.66443243
  eigenvalues    EBANDS =     -2573.67407506
  atomic energy  EATOM  =     50807.32091778
  ---------------------------------------------------
  free energy    TOTEN  =       -99.29181766 eV

  energy without entropy =      -98.62738523  energy(sigma->0) =      -98.95960144


--------------------------------------------------------------------------------------------------------




----------------------------------------- Iteration    1(  15)  ---------------------------------------


    POTLOK:  cpu time    0.16: real time    0.16
    SETDIJ:  cpu time    0.00: real time    0.00
    EDDIAG:  cpu time    0.26: real time    0.27
  RMM-DIIS:  cpu time    0.86: real time    0.86
    ORTHCH:  cpu time    0.03: real time    0.03
       DOS:  cpu time    0.00: real time    0.00
    CHARGE:  cpu time    0.10: real time    0.10
    MIXING:  cpu time    0.00: real time    0.00
    --------------------------------------------
      LOOP:  cpu time    1.44: real time    1.44

 eigenvalue-minimisations  :   500
 total energy-change (2. order) :-0.9891164E-02  (-0.2372572E-03)
 number of electron     417.9998888 magnetization 
 augmentation part      264.4522614 magnetization 

 Broyden mixing:
  rms(total) = 0.47062E-02    rms(broyden)= 0.47057E-02
  rms(prec ) = 0.62174E-02
  weight for this iteration     100.00

 eigenvalues of (default mixing * dielectric matrix)
  average eigenvalue GAMMA=   1.4418
  4.3360  2.8736  2.0535  1.3563  0.9025  0.9025  0.6423  0.4367  0.4575  0.4575

 Free energy of the ion-electron system (eV)
  ---------------------------------------------------
  alpha Z        PSCENC =       334.47473255
  Ewald energy   TEWEN  =     80910.05328024
  -1/2 Hartree   DENC   =   -126494.05835542
  -exchange  EXHF       =         0.00000000
  -V(xc)+E(xc)   XCENC  =      1277.95201672
  PAW double counting   =     39711.60083104   -44079.18908655
  entropy T*S    EENTRO =        -0.66452815
  eigenvalues    EBANDS =     -2566.79151703
  atomic energy  EATOM  =     50807.32091778
  ---------------------------------------------------
  free energy    TOTEN  =       -99.30170882 eV

  energy without entropy =      -98.63718067  energy(sigma->0) =      -98.96944474


--------------------------------------------------------------------------------------------------------




----------------------------------------- Iteration    1(  16)  ---------------------------------------


    POTLOK:  cpu time    0.16: real time    0.16
    SETDIJ:  cpu time    0.00: real time    0.00
    EDDIAG:  cpu time    0.27: real time    0.27
  RMM-DIIS:  cpu time    0.86: real time    0.87
    ORTHCH:  cpu time    0.03: real time    0.03
       DOS:  cpu time    0.00: real time    0.00
    CHARGE:  cpu time    0.10: real time    0.10
    MIXING:  cpu time    0.00: real time    0.00
    --------------------------------------------
      LOOP:  cpu time    1.44: real time    1.45

 eigenvalue-minimisations  :   500
 total energy-change (2. order) :-0.3827130E-02  (-0.1595669E-03)
 number of electron     417.9998888 magnetization 
 augmentation part      264.4346076 magnetization 

 Broyden mixing:
  rms(total) = 0.17182E-02    rms(broyden)= 0.17174E-02
  rms(prec ) = 0.27384E-02
  weight for this iteration     100.00

 eigenvalues of (default mixing * dielectric matrix)
  average eigenvalue GAMMA=   1.5580
  5.6968  2.8964  2.2411  1.3330  1.2480  0.8698  0.8698  0.6405  0.4639  0.4392
  0.4392

 Free energy of the ion-electron system (eV)
  ---------------------------------------------------
  alpha Z        PSCENC =       334.47473255
  Ewald energy   TEWEN  =     80910.05328024
  -1/2 Hartree   DENC   =   -126498.09638502
  -exchange  EXHF       =         0.00000000
  -V(xc)+E(xc)   XCENC  =      1277.99072832
  PAW double counting   =     39710.85430688   -44078.60011453
  entropy T*S    EENTRO =        -0.66449891
  eigenvalues    EBANDS =     -2562.63850326
  atomic energy  EATOM  =     50807.32091778
  ---------------------------------------------------
  free energy    TOTEN  =       -99.30553595 eV

  energy without entropy =      -98.64103704  energy(sigma->0) =      -98.97328650


--------------------------------------------------------------------------------------------------------




----------------------------------------- Iteration    1(  17)  ---------------------------------------


    POTLOK:  cpu time    0.16: real time    0.17
    SETDIJ:  cpu time    0.00: real time    0.00
    EDDIAG:  cpu time    0.26: real time    0.26
  RMM-DIIS:  cpu time    0.86: real time    0.87
    ORTHCH:  cpu time    0.03: real time    0.04
       DOS:  cpu time    0.00: real time    0.00
    CHARGE:  cpu time    0.10: real time    0.10
    MIXING:  cpu time    0.00: real time    0.01
    --------------------------------------------
      LOOP:  cpu time    1.44: real time    1.45

 eigenvalue-minimisations  :   500
 total energy-change (2. order) :-0.1727651E-02  (-0.5782382E-04)
 number of electron     417.9998888 magnetization 
 augmentation part      264.4299528 magnetization 

 Broyden mixing:
  rms(total) = 0.19631E-02    rms(broyden)= 0.19629E-02
  rms(prec ) = 0.24220E-02
  weight for this iteration     100.00

 eigenvalues of (default mixing * dielectric matrix)
  average eigenvalue GAMMA=   1.5882
  6.2782  2.9500  2.3615  1.6165  1.3288  0.8785  0.8785  0.7781  0.6438  0.4650
  0.4369  0.4422

 Free energy of the ion-electron system (eV)
  ---------------------------------------------------
  alpha Z        PSCENC =       334.47473255
  Ewald energy   TEWEN  =     80910.05328024
  -1/2 Hartree   DENC   =   -126500.11100922
  -exchange  EXHF       =         0.00000000
  -V(xc)+E(xc)   XCENC  =      1277.99466645
  PAW double counting   =     39711.25954896   -44079.20121220
  entropy T*S    EENTRO =        -0.66406292
  eigenvalues    EBANDS =     -2560.43412523
  atomic energy  EATOM  =     50807.32091778
  ---------------------------------------------------
  free energy    TOTEN  =       -99.30726360 eV

  energy without entropy =      -98.64320068  energy(sigma->0) =      -98.97523214


--------------------------------------------------------------------------------------------------------




----------------------------------------- Iteration    1(  18)  ---------------------------------------


    POTLOK:  cpu time    0.17: real time    0.17
    SETDIJ:  cpu time    0.00: real time    0.00
    EDDIAG:  cpu time    0.26: real time    0.26
  RMM-DIIS:  cpu time    0.85: real time    0.85
    ORTHCH:  cpu time    0.03: real time    0.03
       DOS:  cpu time    0.00: real time    0.00
    CHARGE:  cpu time    0.10: real time    0.10
    MIXING:  cpu time    0.01: real time    0.01
    --------------------------------------------
      LOOP:  cpu time    1.43: real time    1.43

 eigenvalue-minimisations  :   493
 total energy-change (2. order) :-0.6189313E-03  (-0.7336077E-05)
 number of electron     417.9998888 magnetization 
 augmentation part      264.4358466 magnetization 

 Broyden mixing:
  rms(total) = 0.84326E-03    rms(broyden)= 0.84307E-03
  rms(prec ) = 0.11943E-02
  weight for this iteration     100.00

 eigenvalues of (default mixing * dielectric matrix)
  average eigenvalue GAMMA=   1.6309
  6.7803  3.2683  2.5413  2.0483  1.3231  0.9616  0.9148  0.9148  0.6420  0.4641
  0.4641  0.4384  0.4401

 Free energy of the ion-electron system (eV)
  ---------------------------------------------------
  alpha Z        PSCENC =       334.47473255
  Ewald energy   TEWEN  =     80910.05328024
  -1/2 Hartree   DENC   =   -126500.15993677
  -exchange  EXHF       =         0.00000000
  -V(xc)+E(xc)   XCENC  =      1277.98161881
  PAW double counting   =     39711.69472339   -44079.63085663
  entropy T*S    EENTRO =        -0.66413319
  eigenvalues    EBANDS =     -2560.37822872
  atomic energy  EATOM  =     50807.32091778
  ---------------------------------------------------
  free energy    TOTEN  =       -99.30788253 eV

  energy without entropy =      -98.64374934  energy(sigma->0) =      -98.97581594


--------------------------------------------------------------------------------------------------------




----------------------------------------- Iteration    1(  19)  ---------------------------------------


    POTLOK:  cpu time    0.17: real time    0.17
    SETDIJ:  cpu time    0.00: real time    0.00
    EDDIAG:  cpu time    0.26: real time    0.27
  RMM-DIIS:  cpu time    0.84: real time    0.84
    ORTHCH:  cpu time    0.03: real time    0.03
       DOS:  cpu time    0.00: real time    0.00
    CHARGE:  cpu time    0.10: real time    0.10
    MIXING:  cpu time    0.01: real time    0.01
    --------------------------------------------
      LOOP:  cpu time    1.42: real time    1.43

 eigenvalue-minimisations  :   490
 total energy-change (2. order) :-0.3625618E-03  (-0.5578972E-05)
 number of electron     417.9998888 magnetization 
 augmentation part      264.4397540 magnetization 

 Broyden mixing:
  rms(total) = 0.75424E-03    rms(broyden)= 0.75408E-03
  rms(prec ) = 0.95287E-03
  weight for this iteration     100.00

 eigenvalues of (default mixing * dielectric matrix)
  average eigenvalue GAMMA=   1.7097
  7.3204  3.8720  2.6015  2.2699  1.3660  1.3660  0.9133  0.9133  0.8833  0.6423
  0.4674  0.4471  0.4366  0.4366

 Free energy of the ion-electron system (eV)
  ---------------------------------------------------
  alpha Z        PSCENC =       334.47473255
  Ewald energy   TEWEN  =     80910.05328024
  -1/2 Hartree   DENC   =   -126500.12707542
  -exchange  EXHF       =         0.00000000
  -V(xc)+E(xc)   XCENC  =      1277.97377874
  PAW double counting   =     39712.10627881   -44080.02424477
  entropy T*S    EENTRO =        -0.66417713
  eigenvalues    EBANDS =     -2560.42173589
  atomic energy  EATOM  =     50807.32091778
  ---------------------------------------------------
  free energy    TOTEN  =       -99.30824510 eV

  energy without entropy =      -98.64406797  energy(sigma->0) =      -98.97615653


--------------------------------------------------------------------------------------------------------




----------------------------------------- Iteration    1(  20)  ---------------------------------------


    POTLOK:  cpu time    0.17: real time    0.17
    SETDIJ:  cpu time    0.00: real time    0.00
    EDDIAG:  cpu time    0.26: real time    0.26
  RMM-DIIS:  cpu time    0.84: real time    0.84
    ORTHCH:  cpu time    0.03: real time    0.03
       DOS:  cpu time    0.00: real time    0.00
    CHARGE:  cpu time    0.10: real time    0.10
    MIXING:  cpu time    0.01: real time    0.01
    --------------------------------------------
      LOOP:  cpu time    1.42: real time    1.43

 eigenvalue-minimisations  :   485
 total energy-change (2. order) :-0.2184273E-03  (-0.5523815E-05)
 number of electron     417.9998888 magnetization 
 augmentation part      264.4376808 magnetization 

 Broyden mixing:
  rms(total) = 0.26783E-03    rms(broyden)= 0.26777E-03
  rms(prec ) = 0.39715E-03
  weight for this iteration     100.00

 eigenvalues of (default mixing * dielectric matrix)
  average eigenvalue GAMMA=   1.6746
  7.4968  4.0036  2.6303  2.2904  1.5035  1.3482  0.9168  0.9168  0.8823  0.6417
  0.6958  0.4695  0.4477  0.4348  0.4404

 Free energy of the ion-electron system (eV)
  ---------------------------------------------------
  alpha Z        PSCENC =       334.47473255
  Ewald energy   TEWEN  =     80910.05328024
  -1/2 Hartree   DENC   =   -126500.29997737
  -exchange  EXHF       =         0.00000000
  -V(xc)+E(xc)   XCENC  =      1277.97760476
  PAW double counting   =     39712.43146279   -44080.35195366
  entropy T*S    EENTRO =        -0.66400778
  eigenvalues    EBANDS =     -2560.25052283
  atomic energy  EATOM  =     50807.32091778
  ---------------------------------------------------
  free energy    TOTEN  =       -99.30846352 eV

  energy without entropy =      -98.64445574  energy(sigma->0) =      -98.97645963


--------------------------------------------------------------------------------------------------------




----------------------------------------- Iteration    1(  21)  ---------------------------------------


    POTLOK:  cpu time    0.17: real time    0.17
    SETDIJ:  cpu time    0.00: real time    0.00
    EDDIAG:  cpu time    0.27: real time    0.27
  RMM-DIIS:  cpu time    0.61: real time    0.61
    ORTHCH:  cpu time    0.04: real time    0.04
       DOS:  cpu time    0.00: real time    0.00
    CHARGE:  cpu time    0.10: real time    0.10
    MIXING:  cpu time    0.01: real time    0.01
    --------------------------------------------
      LOOP:  cpu time    1.20: real time    1.20

 eigenvalue-minimisations  :   333
 total energy-change (2. order) :-0.5087627E-04  (-0.1007463E-05)
 number of electron     417.9998888 magnetization 
 augmentation part      264.4369762 magnetization 

 Broyden mixing:
  rms(total) = 0.17512E-03    rms(broyden)= 0.17507E-03
  rms(prec ) = 0.29100E-03
  weight for this iteration     100.00

 eigenvalues of (default mixing * dielectric matrix)
  average eigenvalue GAMMA=   1.6948
  7.6739  4.2371  2.6789  2.3379  1.9594  1.3027  1.3027  0.9184  0.9184  0.8908
  0.6423  0.4340  0.4409  0.4471  0.4662  0.4662

 Free energy of the ion-electron system (eV)
  ---------------------------------------------------
  alpha Z        PSCENC =       334.47473255
  Ewald energy   TEWEN  =     80910.05328024
  -1/2 Hartree   DENC   =   -126500.35594384
  -exchange  EXHF       =         0.00000000
  -V(xc)+E(xc)   XCENC  =      1277.97891247
  PAW double counting   =     39712.40427329   -44080.32430696
  entropy T*S    EENTRO =        -0.66395800
  eigenvalues    EBANDS =     -2560.19642193
  atomic energy  EATOM  =     50807.32091778
  ---------------------------------------------------
  free energy    TOTEN  =       -99.30851440 eV

  energy without entropy =      -98.64455640  energy(sigma->0) =      -98.97653540


--------------------------------------------------------------------------------------------------------




----------------------------------------- Iteration    1(  22)  ---------------------------------------


    POTLOK:  cpu time    0.16: real time    0.17
    SETDIJ:  cpu time    0.00: real time    0.00
    EDDIAG:  cpu time    0.26: real time    0.26
  RMM-DIIS:  cpu time    0.63: real time    0.63
    ORTHCH:  cpu time    0.03: real time    0.03
       DOS:  cpu time    0.00: real time    0.00
    CHARGE:  cpu time    0.10: real time    0.10
    MIXING:  cpu time    0.01: real time    0.01
    --------------------------------------------
      LOOP:  cpu time    1.21: real time    1.29

 eigenvalue-minimisations  :   343
 total energy-change (2. order) :-0.4610952E-04  (-0.1361826E-05)
 number of electron     417.9998888 magnetization 
 augmentation part      264.4365475 magnetization 

 Broyden mixing:
  rms(total) = 0.17204E-03    rms(broyden)= 0.17202E-03
  rms(prec ) = 0.24218E-03
  weight for this iteration     100.00

 eigenvalues of (default mixing * dielectric matrix)
  average eigenvalue GAMMA=   1.7686
  7.7348  5.1940  2.8323  2.8323  2.1732  1.3861  1.3861  0.9626  0.9626  0.8734
  0.8734  0.6421  0.4697  0.4481  0.4412  0.4354  0.4189

 Free energy of the ion-electron system (eV)
  ---------------------------------------------------
  alpha Z        PSCENC =       334.47473255
  Ewald energy   TEWEN  =     80910.05328024
  -1/2 Hartree   DENC   =   -126500.38796342
  -exchange  EXHF       =         0.00000000
  -V(xc)+E(xc)   XCENC  =      1277.98003667
  PAW double counting   =     39712.28549542   -44080.19884214
  entropy T*S    EENTRO =        -0.66391240
  eigenvalues    EBANDS =     -2560.17230522
  atomic energy  EATOM  =     50807.32091778
  ---------------------------------------------------
  free energy    TOTEN  =       -99.30856051 eV

  energy without entropy =      -98.64464811  energy(sigma->0) =      -98.97660431


--------------------------------------------------------------------------------------------------------




----------------------------------------- Iteration    1(  23)  ---------------------------------------


    POTLOK:  cpu time    0.16: real time    0.16
    SETDIJ:  cpu time    0.00: real time    0.00
    EDDIAG:  cpu time    0.26: real time    0.27
  RMM-DIIS:  cpu time    0.61: real time    0.61
    ORTHCH:  cpu time    0.04: real time    0.04
       DOS:  cpu time    0.00: real time    0.00
    CHARGE:  cpu time    0.10: real time    0.10
    MIXING:  cpu time    0.01: real time    0.01
    --------------------------------------------
      LOOP:  cpu time    1.19: real time    1.19

 eigenvalue-minimisations  :   328
 total energy-change (2. order) :-0.1417469E-04  (-0.9783151E-06)
 number of electron     417.9998888 magnetization 
 augmentation part      264.4367850 magnetization 

 Broyden mixing:
  rms(total) = 0.13439E-03    rms(broyden)= 0.13438E-03
  rms(prec ) = 0.16820E-03
  weight for this iteration     100.00

 eigenvalues of (default mixing * dielectric matrix)
  average eigenvalue GAMMA=   1.7730
  7.6560  5.6492  2.8956  2.8956  2.0736  1.4918  1.4918  1.2779  1.0293  0.8896
  0.8896  0.8262  0.6422  0.4694  0.4488  0.4398  0.4356  0.4122

 Free energy of the ion-electron system (eV)
  ---------------------------------------------------
  alpha Z        PSCENC =       334.47473255
  Ewald energy   TEWEN  =     80910.05328024
  -1/2 Hartree   DENC   =   -126500.35333322
  -exchange  EXHF       =         0.00000000
  -V(xc)+E(xc)   XCENC  =      1277.98016511
  PAW double counting   =     39712.13815342   -44080.03953153
  entropy T*S    EENTRO =        -0.66388167
  eigenvalues    EBANDS =     -2560.21907737
  atomic energy  EATOM  =     50807.32091778
  ---------------------------------------------------
  free energy    TOTEN  =       -99.30857468 eV

  energy without entropy =      -98.64469301  energy(sigma->0) =      -98.97663385


--------------------------------------------------------------------------------------------------------




----------------------------------------- Iteration    1(  24)  ---------------------------------------


    POTLOK:  cpu time    0.16: real time    0.16
    SETDIJ:  cpu time    0.01: real time    0.00
    EDDIAG:  cpu time    0.26: real time    0.26
  RMM-DIIS:  cpu time    0.54: real time    0.54
    ORTHCH:  cpu time    0.03: real time    0.03
       DOS:  cpu time    0.00: real time    0.00
    --------------------------------------------
      LOOP:  cpu time    1.01: real time    1.08

 eigenvalue-minimisations  :   286
 total energy-change (2. order) :-0.7963317E-06  (-0.5999614E-07)
 number of electron     417.9998888 magnetization 
 augmentation part      264.4367850 magnetization 

 Free energy of the ion-electron system (eV)
  ---------------------------------------------------
  alpha Z        PSCENC =       334.47473255
  Ewald energy   TEWEN  =     80910.05328024
  -1/2 Hartree   DENC   =   -126500.33550512
  -exchange  EXHF       =         0.00000000
  -V(xc)+E(xc)   XCENC  =      1277.97968977
  PAW double counting   =     39712.13103262   -44080.03636311
  entropy T*S    EENTRO =        -0.66387859
  eigenvalues    EBANDS =     -2560.23248162
  atomic energy  EATOM  =     50807.32091778
  ---------------------------------------------------
  free energy    TOTEN  =       -99.30857548 eV

  energy without entropy =      -98.64469689  energy(sigma->0) =      -98.97663619


--------------------------------------------------------------------------------------------------------




 average (electrostatic) potential at core
  the test charge radii are     1.0053  1.1249
  (the norm of the test charge is              1.0000)
       1 -46.7869       2 -46.7869       3 -46.7893       4 -46.7883       5 -46.7891
       6 -46.7891       7 -46.7883       8 -46.7894       9 -46.8363      10 -46.8347
      11 -46.8364      12 -46.8347      13 -46.7696      14 -46.7707      15 -46.7648
      16 -46.7708      17 -46.8498      18 -46.8485      19 -46.8498      20 -46.8485
      21 -46.7887      22 -46.7854      23 -46.7874      24 -46.7854      25 -46.7680
      26 -46.7718      27 -46.7643      28 -46.7718      29 -46.7799      30 -46.7781
      31 -46.7806      32 -46.7781      33 -48.4626      34 -48.4770      35 -48.4802
      36 -48.4683      37 -48.4789      38 -48.4802
 
 
 
 E-fermi :  -3.3181     XC(G=0):  -1.7753     alpha+bet : -0.7748


 k-point   1 :       0.0000    0.0000    0.0000
  band No.  band energies     occupation 
      1     -10.5101      2.00000
      2      -9.8473      2.00000
      3      -9.4973      2.00000
      4      -9.4963      2.00000
      5      -9.4607      2.00000
      6      -9.4563      2.00000
      7      -9.4288      2.00000
      8      -9.4276      2.00000
      9      -9.3333      2.00000
     10      -9.0498      2.00000
     11      -9.0401      2.00000
     12      -8.9801      2.00000
     13      -8.9794      2.00000
     14      -8.9609      2.00000
     15      -8.6014      2.00000
     16      -8.6007      2.00000
     17      -8.5968      2.00000
     18      -8.4764      2.00000
     19      -8.4754      2.00000
     20      -8.4688      2.00000
     21      -8.1677      2.00000
     22      -8.1662      2.00000
     23      -8.1536      2.00000
     24      -8.0515      2.00000
     25      -8.0216      2.00000
     26      -7.9997      2.00000
     27      -7.9995      2.00000
     28      -7.9881      2.00000
     29      -7.6957      2.00000
     30      -7.6730      2.00000
     31      -7.6645      2.00000
     32      -7.6467      2.00000
     33      -7.6447      2.00000
     34      -7.4460      2.00000
     35      -7.3053      2.00000
     36      -7.3050      2.00000
     37      -7.3041      2.00000
     38      -7.0877      2.00000
     39      -7.0621      2.00000
     40      -6.9796      2.00000
     41      -6.7132      2.00000
     42      -6.7129      2.00000
     43      -6.6987      2.00000
     44      -6.6726      2.00000
     45      -6.5220      2.00000
     46      -6.5164      2.00000
     47      -6.5154      2.00000
     48      -6.5149      2.00000
     49      -6.5006      2.00000
     50      -6.4997      2.00000
     51      -6.4991      2.00000
     52      -6.4928      2.00000
     53      -6.4727      2.00000
     54      -6.4696      2.00000
     55      -6.4691      2.00000
     56      -6.4025      2.00000
     57      -6.4012      2.00000
     58      -6.3840      2.00000
     59      -6.3827      2.00000
     60      -6.3413      2.00000
     61      -6.3374      2.00000
     62      -6.3352      2.00000
     63      -6.2925      2.00000
     64      -6.2886      2.00000
     65      -6.2419      2.00000
     66      -6.2403      2.00000
     67      -6.2400      2.00000
     68      -6.1920      2.00000
     69      -6.1705      2.00000
     70      -6.1485      2.00000
     71      -6.1455      2.00000
     72      -6.1436      2.00000
     73      -6.1302      2.00000
     74      -6.1213      2.00000
     75      -6.1005      2.00000
     76      -6.0957      2.00000
     77      -6.0949      2.00000
     78      -6.0746      2.00000
     79      -6.0732      2.00000
     80      -6.0720      2.00000
     81      -5.9908      2.00000
     82      -5.9902      2.00000
     83      -5.9779      2.00000
     84      -5.9758      2.00000
     85      -5.9701      2.00000
     86      -5.9683      2.00000
     87      -5.9084      2.00000
     88      -5.8949      2.00000
     89      -5.8895      2.00000
     90      -5.8876      2.00000
     91      -5.8865      2.00000
     92      -5.8858      2.00000
     93      -5.8813      2.00000
     94      -5.8808      2.00000
     95      -5.8512      2.00000
     96      -5.8489      2.00000
     97      -5.8425      2.00000
     98      -5.8336      2.00000
     99      -5.8219      2.00000
    100      -5.8206      2.00000
    101      -5.8181      2.00000
    102      -5.7943      2.00000
    103      -5.7938      2.00000
    104      -5.7765      2.00000
    105      -5.7100      2.00000
    106      -5.7099      2.00000
    107      -5.7022      2.00000
    108      -5.6975      2.00000
    109      -5.6850      2.00000
    110      -5.6831      2.00000
    111      -5.6717      2.00000
    112      -5.6691      2.00000
    113      -5.6579      2.00000
    114      -5.6209      2.00000
    115      -5.6207      2.00000
    116      -5.6194      2.00000
    117      -5.6084      2.00000
    118      -5.6048      2.00000
    119      -5.6041      2.00000
    120      -5.5981      2.00000
    121      -5.5971      2.00000
    122      -5.5961      2.00000
    123      -5.5513      2.00000
    124      -5.5298      2.00000
    125      -5.5267      2.00000
    126      -5.4677      2.00000
    127      -5.4670      2.00000
    128      -5.4366      2.00000
    129      -5.4265      2.00000
    130      -5.4176      2.00000
    131      -5.4172      2.00000
    132      -5.4085      2.00000
    133      -5.4070      2.00000
    134      -5.4070      2.00000
    135      -5.4065      2.00000
    136      -5.3861      2.00000
    137      -5.3847      2.00000
    138      -5.3844      2.00000
    139      -5.3842      2.00000
    140      -5.3761      2.00000
    141      -5.3752      2.00000
    142      -5.3395      2.00000
    143      -5.3391      2.00000
    144      -5.3390      2.00000
    145      -5.3228      2.00000
    146      -5.3173      2.00000
    147      -5.3163      2.00000
    148      -5.3032      2.00000
    149      -5.2803      2.00000
    150      -5.2758      2.00000
    151      -5.2751      2.00000
    152      -5.2745      2.00000
    153      -5.2702      2.00000
    154      -5.2697      2.00000
    155      -5.2654      2.00000
    156      -5.2653      2.00000
    157      -5.2630      2.00000
    158      -5.2358      2.00000
    159      -5.2339      2.00000
    160      -5.2288      2.00000
    161      -5.2267      2.00000
    162      -5.2230      2.00000
    163      -5.2175      2.00000
    164      -5.2011      2.00000
    165      -5.1965      2.00000
    166      -5.1957      2.00000
    167      -5.1926      2.00000
    168      -5.1899      2.00000
    169      -5.1888      2.00000
    170      -5.1850      2.00000
    171      -5.1844      2.00000
    172      -5.1839      2.00000
    173      -5.1834      2.00000
    174      -5.1727      2.00000
    175      -5.1727      2.00000
    176      -5.1685      2.00000
[...]
    153      -5.4202      2.00000
    154      -5.4202      2.00000
    155      -5.4122      2.00000
    156      -5.4078      2.00000
    157      -5.3913      2.00000
    158      -5.3913      2.00000
    159      -5.3891      2.00000
    160      -5.3624      2.00000
    161      -5.3620      2.00000
    162      -5.3599      2.00000
    163      -5.3584      2.00000
    164      -5.3565      2.00000
    165      -5.3438      2.00000
    166      -5.3330      2.00000
    167      -5.3330      2.00000
    168      -5.3272      2.00000
    169      -5.3117      2.00000
    170      -5.3055      2.00000
    171      -5.3044      2.00000
    172      -5.3038      2.00000
    173      -5.3037      2.00000
    174      -5.2988      2.00000
    175      -5.2978      2.00000
    176      -5.2975      2.00000
    177      -5.2937      2.00000
    178      -5.2935      2.00000
    179      -5.2908      2.00000
    180      -5.2894      2.00000
    181      -5.2767      2.00000
    182      -5.2715      2.00000
    183      -5.2715      2.00000
    184      -5.2670      2.00000
    185      -5.2669      2.00000
    186      -5.2600      2.00000
    187      -5.2589      2.00000
    188      -5.2557      2.00000
    189      -5.2555      2.00000
    190      -5.2190      2.00000
    191      -5.2186      2.00000
    192      -5.2104      2.00000
    193      -5.1637      2.00000
    194      -5.1602      2.00000
    195      -5.1442      2.00000
    196      -5.1290      2.00000
    197      -5.0941      2.00000
    198      -5.0927      2.00000
    199      -5.0925      2.00000
    200      -4.8796      2.00000
    201      -4.6869      2.00000
    202      -4.6641      2.00000
    203      -4.6635      2.00000
    204      -4.6349      2.00000
    205      -4.6338      2.00000
    206      -4.6328      2.00000
    207      -4.3643      2.00000
    208      -3.3880      1.26397
    209      -3.3755      1.19675
    210      -3.3755      1.19657
    211      -3.1003      0.08978
    212      -3.0980      0.08668
    213      -3.0663      0.05270
    214      -3.0659      0.05238
    215      -3.0393      0.03335
    216      -2.9645      0.00788
    217      -2.9642      0.00784
    218      -2.9628      0.00761
    219      -2.9385      0.00449
    220      -2.0360      0.00000
    221      -2.0355      0.00000
    222      -2.0294      0.00000
    223      -1.8640      0.00000
    224      -1.7268      0.00000
    225      -1.6900      0.00000
    226      -1.3520      0.00000
    227      -1.2964      0.00000
    228      -1.2961      0.00000
    229      -1.2815      0.00000
    230      -1.2720      0.00000
    231      -1.1728      0.00000
    232      -1.1627      0.00000
    233      -1.1621      0.00000
    234      -0.5404      0.00000
    235      -0.5394      0.00000
    236      -0.5186      0.00000
    237      -0.2867      0.00000
    238      -0.2861      0.00000
    239      -0.2847      0.00000
    240      -0.1763      0.00000
    241      -0.1668      0.00000
    242      -0.1659      0.00000
    243       0.6160      0.00000
    244       0.6163      0.00000
    245       0.6211      0.00000
    246       0.6506      0.00000
    247       0.6531      0.00000
    248       0.7587      0.00000
    249       0.8090      0.00000
    250       0.8102      0.00000


--------------------------------------------------------------------------------------------------------


 soft charge-density along one line, spin component           1
         0         1         2         3         4         5         6         7         8         9
 total charge-density along one line
 
 pseudopotential strength for first ion, spin component:           1
-11.527  -0.000  -0.010  -0.000  -0.002   2.046   0.000   0.005
 -0.000 -11.575  -0.000   0.005  -0.000   0.000   2.069   0.000
 -0.010  -0.000 -11.559  -0.000  -0.016   0.005   0.000   2.061
 -0.000   0.005  -0.000 -11.532  -0.000  -0.000  -0.003   0.000
 -0.002  -0.000  -0.016  -0.000 -11.540   0.001   0.000   0.008
  2.046   0.000   0.005  -0.000   0.001   0.650  -0.000  -0.002
  0.000   2.069   0.000  -0.003   0.000  -0.000   0.639  -0.000
  0.005   0.000   2.061   0.000   0.008  -0.002  -0.000   0.642
 -0.000  -0.003   0.000   2.048   0.000   0.000   0.001  -0.000
  0.001   0.000   0.008   0.000   2.051  -0.000  -0.000  -0.004
 -0.003  -0.000   0.004   0.000  -0.005   0.001   0.000  -0.002
  0.000  -0.000  -0.000  -0.000   0.000  -0.000  -0.000   0.000
  0.015   0.000  -0.005  -0.000  -0.008  -0.008  -0.000   0.002
 -0.000   0.009   0.000   0.015   0.000   0.000  -0.004  -0.000
  0.008  -0.000  -0.009   0.000   0.015  -0.004   0.000   0.005
 -0.009  -0.000   0.003   0.000   0.005   0.004   0.000  -0.001
  0.000  -0.005  -0.000  -0.009  -0.000  -0.000   0.003   0.000
 -0.006   0.000   0.005  -0.000  -0.008   0.003  -0.000  -0.002
 total augmentation occupancy for first ion, spin component:           1
  1.947   0.000  -0.005   0.000  -0.003  -0.046   0.000   0.009   0.000   0.002   0.015   0.011  -0.001  -0.000   0.000   0.008
  0.000   1.920   0.000   0.004  -0.000   0.000  -0.014   0.000   0.002   0.000   0.000  -0.000  -0.000  -0.004  -0.000   0.000
 -0.005   0.000   1.929   0.000  -0.004   0.009   0.000  -0.029   0.000  -0.001  -0.019  -0.008   0.012  -0.000   0.001  -0.004
  0.000   0.004   0.000   1.944   0.000   0.000   0.002   0.000  -0.041  -0.000   0.000  -0.000  -0.000  -0.027  -0.000   0.000
 -0.003  -0.000  -0.004   0.000   1.946   0.002   0.000  -0.001  -0.000  -0.017   0.012   0.014   0.020  -0.000  -0.024  -0.007
 -0.046   0.000   0.009   0.000   0.002   0.037   0.000  -0.002   0.000  -0.003  -0.023  -0.002  -0.033   0.000  -0.006   0.002
  0.000  -0.014   0.000   0.002   0.000   0.000   0.030   0.000   0.002  -0.000   0.000  -0.000  -0.000  -0.015   0.000   0.000
  0.009   0.000  -0.029   0.000  -0.001  -0.002   0.000   0.032   0.000  -0.003   0.011   0.009   0.013  -0.000   0.016  -0.001
  0.000   0.002   0.000  -0.041  -0.000   0.000   0.002   0.000   0.043   0.000   0.000  -0.000  -0.000  -0.049  -0.000   0.000
  0.002   0.000  -0.001  -0.000  -0.017  -0.003  -0.000  -0.003   0.000   0.053  -0.033  -0.010   0.035   0.000  -0.043  -0.002
  0.015   0.000  -0.019   0.000   0.012  -0.023   0.000   0.011   0.000  -0.033   1.199  -0.236  -0.064  -0.001  -0.107   0.009
  0.011  -0.000  -0.008  -0.000   0.014  -0.002  -0.000   0.009  -0.000  -0.010  -0.236   0.085   0.022   0.000   0.061  -0.003
 -0.001  -0.000   0.012  -0.000   0.020  -0.033  -0.000   0.013  -0.000   0.035  -0.064   0.022   0.097   0.000  -0.013  -0.006
 -0.000  -0.004  -0.000  -0.027  -0.000   0.000  -0.015  -0.000  -0.049   0.000  -0.001   0.000   0.000   0.100  -0.000  -0.000
  0.000  -0.000   0.001  -0.000  -0.024  -0.006   0.000   0.016  -0.000  -0.043  -0.107   0.061  -0.013  -0.000   0.086   0.000
  0.008   0.000  -0.004   0.000  -0.007   0.002   0.000  -0.001   0.000  -0.002   0.009  -0.003  -0.006  -0.000   0.000   0.001
  0.000   0.005   0.000   0.011  -0.000   0.000   0.001   0.000   0.003  -0.000   0.000  -0.000  -0.000  -0.006  -0.000   0.000
  0.004   0.000  -0.004   0.000   0.009  -0.000   0.000  -0.001   0.000   0.003   0.019  -0.007   0.000  -0.000  -0.007   0.000


------------------------ aborting loop because EDIFF is reached ----------------------------------------


    CHARGE:  cpu time    0.10: real time    0.10
    FORLOC:  cpu time    0.02: real time    0.02
    FORNL :  cpu time    0.36: real time    0.36
    FORCOR:  cpu time    0.18: real time    0.18
    FORHAR:  cpu time    0.05: real time    0.05
    MIXING:  cpu time    0.00: real time    0.00

 VOLUME and BASIS-vectors are now :
 -----------------------------------------------------------------------------
  energy-cutoff  :      274.00
  volume of cell :     5832.00
      direct lattice vectors                 reciprocal lattice vectors
    18.000000000  0.000000000  0.000000000     0.055555556  0.000000000  0.000000000
     0.000000000 18.000000000  0.000000000     0.000000000  0.055555556  0.000000000
     0.000000000  0.000000000 18.000000000     0.000000000  0.000000000  0.055555556

  length of vectors
    18.000000000 18.000000000 18.000000000     0.055555556  0.055555556  0.055555556


 FORCES acting on ions
    electron-ion (+dipol)            ewald-force                    non-local-force                 convergence-correction
 -----------------------------------------------------------------------------------------------
   -.187E+04 -.647E+03 -.233E+01   0.186E+04 0.644E+03 0.231E+01   0.362E+01 0.263E+01 0.317E-01   -.844E-04 -.937E-03 -.170E-02
   -.647E+03 -.187E+04 -.234E+01   0.644E+03 0.186E+04 0.232E+01   0.263E+01 0.362E+01 0.318E-01   -.984E-03 -.843E-04 -.169E-02
   0.187E+04 -.649E+03 -.370E+00   -.186E+04 0.647E+03 0.336E+00   -.363E+01 0.265E+01 0.346E-01   0.563E-03 -.568E-03 -.103E-02
   0.651E+03 -.186E+04 -.366E+01   -.648E+03 0.186E+04 0.365E+01   -.265E+01 0.362E+01 0.163E-01   0.149E-03 -.663E-03 -.666E-03
   0.187E+04 0.647E+03 0.693E+01   -.186E+04 -.644E+03 -.695E+01   -.361E+01 -.262E+01 0.192E-01   0.577E-03 0.678E-03 -.144E-02
   0.647E+03 0.187E+04 0.689E+01   -.644E+03 -.186E+04 -.691E+01   -.262E+01 -.361E+01 0.196E-01   0.605E-03 0.557E-03 -.148E-02
   -.186E+04 0.651E+03 -.371E+01   0.186E+04 -.648E+03 0.370E+01   0.362E+01 -.265E+01 0.168E-01   -.604E-03 0.164E-03 -.692E-03
   -.649E+03 0.187E+04 -.413E+00   0.647E+03 -.186E+04 0.380E+00   0.265E+01 -.363E+01 0.345E-01   -.556E-03 0.537E-03 -.107E-02
   -.146E+04 0.914E+00 -.104E+04   0.146E+04 -.915E+00 0.104E+04   0.413E-01 -.203E-02 0.431E-01   -.672E-03 -.935E-03 -.874E-03
   0.146E+04 0.240E+01 -.103E+04   -.146E+04 -.239E+01 0.103E+04   -.420E-01 -.550E-02 0.394E-01   -.560E-03 0.587E-03 -.107E-02
   0.914E+00 -.146E+04 -.104E+04   -.914E+00 0.146E+04 0.104E+04   -.860E-03 0.410E-01 0.433E-01   -.980E-03 -.683E-03 -.886E-03
   0.244E+01 0.146E+04 -.103E+04   -.243E+01 -.146E+04 0.103E+04   -.561E-02 -.425E-01 0.394E-01   0.525E-03 -.505E-03 -.107E-02
   -.127E+04 -.127E+04 -.900E+03   0.127E+04 0.127E+04 0.899E+03   0.310E+01 0.311E+01 0.677E+00   0.314E-04 0.519E-04 -.133E-02
   0.127E+04 -.127E+04 -.903E+03   -.127E+04 0.126E+04 0.902E+03   -.310E+01 0.307E+01 0.701E+00   -.406E-03 0.516E-03 -.777E-03
   0.127E+04 0.127E+04 -.891E+03   -.127E+04 -.127E+04 0.890E+03   -.310E+01 -.310E+01 0.647E+00   -.689E-03 -.624E-03 -.128E-02
   -.127E+04 0.127E+04 -.903E+03   0.126E+04 -.127E+04 0.902E+03   0.307E+01 -.310E+01 0.701E+00   0.596E-03 -.442E-03 -.724E-03
   -.146E+04 -.141E+01 0.103E+04   0.146E+04 0.142E+01 -.103E+04   0.494E-02 -.628E-02 -.206E-01   0.257E-03 -.176E-03 -.700E-03
   0.146E+04 -.314E+01 0.104E+04   -.146E+04 0.314E+01 -.104E+04   0.314E-02 0.608E-02 -.198E-01   -.197E-03 -.521E-03 -.330E-03
   -.143E+01 -.146E+04 0.103E+04   0.144E+01 0.146E+04 -.103E+04   -.632E-02 0.495E-02 -.207E-01   -.210E-03 0.283E-03 -.690E-03
   -.316E+01 0.146E+04 0.104E+04   0.316E+01 -.146E+04 -.104E+04   0.606E-02 0.305E-02 -.198E-01   -.539E-03 -.157E-03 -.343E-03
   -.127E+04 -.127E+04 0.896E+03   0.127E+04 0.127E+04 -.895E+03   0.309E+01 0.309E+01 -.689E+00   -.807E-03 -.792E-03 -.153E-02
   0.127E+04 -.127E+04 0.899E+03   -.127E+04 0.127E+04 -.899E+03   -.307E+01 0.308E+01 -.703E+00   0.727E-03 -.125E-02 -.741E-04
   0.127E+04 0.127E+04 0.906E+03   -.127E+04 -.127E+04 -.905E+03   -.307E+01 -.307E+01 -.730E+00   0.119E-02 0.123E-02 -.731E-04
   -.127E+04 0.127E+04 0.899E+03   0.127E+04 -.127E+04 -.899E+03   0.308E+01 -.307E+01 -.703E+00   -.126E-02 0.739E-03 -.665E-04
   -.640E+03 -.640E+03 -.177E+04   0.639E+03 0.640E+03 0.176E+04   0.522E+00 0.523E+00 0.440E+01   0.114E-03 0.155E-03 0.319E-04
   0.642E+03 -.635E+03 -.177E+04   -.642E+03 0.635E+03 0.176E+04   -.524E+00 0.495E+00 0.442E+01   -.473E-03 0.712E-03 0.544E-03
   0.647E+03 0.647E+03 -.176E+04   -.647E+03 -.647E+03 0.176E+04   -.552E+00 -.551E+00 0.443E+01   -.995E-03 -.935E-03 0.149E-02
   -.635E+03 0.642E+03 -.177E+04   0.635E+03 -.642E+03 0.176E+04   0.495E+00 -.523E+00 0.442E+01   0.692E-03 -.439E-03 0.631E-03
   -.644E+03 -.644E+03 0.177E+04   0.644E+03 0.644E+03 -.176E+04   0.545E+00 0.545E+00 -.439E+01   0.102E-03 0.126E-03 0.662E-03
   0.638E+03 -.645E+03 0.177E+04   -.638E+03 0.645E+03 -.176E+04   -.529E+00 0.543E+00 -.440E+01   -.299E-03 -.412E-03 0.133E-02
   0.638E+03 0.638E+03 0.177E+04   -.637E+03 -.637E+03 -.177E+04   -.523E+00 -.523E+00 -.438E+01   -.162E-04 0.116E-04 0.208E-02
   -.645E+03 0.638E+03 0.177E+04   0.645E+03 -.638E+03 -.176E+04   0.543E+00 -.529E+00 -.440E+01   -.432E-03 -.267E-03 0.132E-02
   0.143E+01 0.145E+01 -.860E+03   -.143E+01 -.145E+01 0.860E+03   -.189E-02 -.194E-02 0.219E+00   0.189E-02 0.204E-02 -.116E-02
   0.614E+03 0.614E+03 0.736E+00   -.614E+03 -.614E+03 -.736E+00   -.117E+00 -.117E+00 -.238E-03   0.116E-02 0.125E-02 -.318E-02
   0.615E+03 -.616E+03 -.245E+01   -.615E+03 0.616E+03 0.245E+01   -.113E+00 0.115E+00 -.166E-02   0.124E-02 -.144E-02 -.179E-02
   -.199E+01 -.198E+01 0.855E+03   0.199E+01 0.198E+01 -.855E+03   0.234E-02 0.235E-02 -.227E+00   -.134E-02 -.135E-02 0.183E-02
   -.616E+03 -.616E+03 -.360E+01   0.616E+03 0.616E+03 0.360E+01   0.113E+00 0.113E+00 0.196E-02   -.306E-02 -.302E-02 -.178E-02
   -.616E+03 0.615E+03 -.249E+01   0.616E+03 -.615E+03 0.249E+01   0.115E+00 -.113E+00 -.159E-02   -.149E-02 0.130E-02 -.192E-02
 -----------------------------------------------------------------------------------------------
   0.175E-02 0.146E-02 -.285E+00   -.682E-12 0.341E-12 -.296E-11   -.106E-01 -.960E-02 0.289E+00   -.625E-02 -.527E-02 -.215E-01
 
 
 POSITION                                       TOTAL-FORCE (eV/Angst)
 -----------------------------------------------------------------------------------
     12.88392     10.21682      9.00013         0.004933      0.000290      0.004785
     10.21684     12.88390      9.00013         0.000264      0.004938      0.004822
      5.11566     10.22393      8.99131        -0.003594     -0.000789      0.000341
      7.76947     12.88414      9.00244        -0.001420      0.002818      0.000977
      5.11451      7.77629      8.97722        -0.004344     -0.001464     -0.000874
      7.77628      5.11451      8.97726        -0.001397     -0.004362     -0.000860
     12.88414      7.76946      9.00247         0.002841     -0.001397      0.001083
     10.22393      5.11564      8.99140        -0.000795     -0.003518      0.000335
     11.76055      8.99760     10.96852         0.003307     -0.003283      0.000612
      6.23274      8.99204     10.95847        -0.002609      0.002459     -0.000411
      8.99739     11.76055     10.96847        -0.002273      0.003219      0.000782
      8.99199      6.23272     10.95854         0.002479     -0.002557     -0.000662
     11.54634     11.54635     10.89806         0.001828      0.002033      0.004627
      6.45297     11.54005     10.90117        -0.004900      0.002985     -0.001217
      6.44398      6.44414     10.87669        -0.002793     -0.002599      0.000397
     11.54004      6.45298     10.90122         0.003010     -0.004743     -0.001203
     11.76531      9.00003      7.03468         0.003220      0.001179     -0.001477
      6.23906      9.00466      7.02465        -0.001732      0.001271     -0.003530
      9.00006     11.76528      7.03466         0.001173      0.003206     -0.001512
      9.00469      6.23904      7.02468         0.001279     -0.001772     -0.003492
     11.54605     11.54603      7.10585         0.002623      0.002591     -0.000369
      6.45535     11.54856      7.09999        -0.001523      0.002115     -0.002647
      6.45740      6.45737      7.08790        -0.001266     -0.001288     -0.003245
     11.54859      6.45533      7.10005         0.002174     -0.001577     -0.002648
     10.32339     10.32340     12.63992        -0.004425     -0.004306      0.002683
      7.67077     10.31377     12.64349        -0.002019     -0.001179      0.000112
      7.65948      7.65952     12.63129         0.002394      0.003270      0.001655
     10.31375      7.67079     12.64350        -0.001100     -0.001999      0.000115
     10.32765     10.32762      5.35717         0.001620      0.001567      0.001407
      7.68090     10.33001      5.35494         0.000520      0.001472      0.001140
      7.68251      7.68244      5.35046         0.000701      0.000691      0.001506
     10.33006      7.68085      5.35497         0.001487      0.000524      0.001084
      8.99520      8.99520     10.95211        -0.000289     -0.000268     -0.003226
      7.62831      7.62829      8.99277        -0.001351     -0.001411     -0.002932
      7.62803     10.37112      8.99967         0.000933     -0.000544     -0.001486
      9.00280      9.00278      7.04708         0.001719      0.001563      0.002592
     10.37070     10.37069      9.00305        -0.000095     -0.000087      0.002280
     10.37114      7.62801      8.99972        -0.000581      0.000950     -0.001542
 -----------------------------------------------------------------------------------
    total drift:                               -0.015096     -0.013410     -0.017603


--------------------------------------------------------------------------------------------------------



  FREE ENERGIE OF THE ION-ELECTRON SYSTEM (eV)
  ---------------------------------------------------
  free  energy   TOTEN  =      -102.52322467 eV

  energy  without entropy=     -102.08708361  energy(sigma->0) =     -102.30515414
 
 d Force = 0.8186880E-04[ 0.521E-04, 0.112E-03]  d Energy = 0.8643424E-04-0.457E-05
 d Force =-0.2444677E+01[-0.244E+01,-0.245E+01]  d Ewald  =-0.2444674E+01-0.352E-05


--------------------------------------------------------------------------------------------------------


    POTLOK:  cpu time    0.18: real time    0.18


--------------------------------------------------------------------------------------------------------


 stress matrix after NEB project (eV)
      0.00000      0.00000      0.00000
      0.00000      0.00000      0.00000
      0.00000      0.00000      0.00000
  FORCES: max atom, RMS     0.006906    0.004041
  FORCE total and by dimension    0.024908    0.004938
  Stress total and by dimension    0.000000    0.000000
 Conjugate gradient step on ions:
 trial-energy change:   -0.000086  1 .order   -0.000082   -0.000112   -0.000052
  (g-gl).g = 0.116E-04      g.g   = 0.115E-04  gl.gl    = 0.133E-04
 g(Force)  = 0.115E-04   g(Stress)= 0.000E+00 ortho     =-0.393E-06
 gamma     =   0.87028
 trial     =  10.01363
 opt step  =  15.17468  (harmonic =  18.77191) maximal distance =0.00297053
 next E    =  -102.523239   (d E  =  -0.00010)


--------------------------------------------------------------------------------------------------------


  
 reached required accuracy - stopping structural energy minimisation
     LOOP+:  cpu time    7.84: real time    7.87
    4ORBIT:  cpu time    0.00: real time    0.00

 total amount of memory used by VASP on root node    48067. kBytes
========================================================================

   base      :      30000. kBytes
   nonlr-proj:        620. kBytes
   fftplans  :       5076. kBytes
   grid      :       8518. kBytes
   one-center:         23. kBytes
   wavefun   :       3830. kBytes
 
  
  
 General timing and accounting informations for this job:
 ========================================================
  
                  Total CPU time used (sec):      388.037
                            User time (sec):      385.515
                          System time (sec):        2.522
                         Elapsed time (sec):      395.038
  
                   Maximum memory used (kb):      118032.
                   Average memory used (kb):           0.
  
                          Minor page faults:       220949
                          Major page faults:            8
                 Voluntary context switches:         6006
