<?xml version="1.0" encoding="ISO-8859-1"?>
<modeling>
 <generator>
  <i name="program" type="string">vasp </i>
  <i name="version" type="string">5.3.3  </i>
  <i name="subversion" type="string">18Dez12 (build Jan 21 2013 20:40:09) gamma-only                       parallel </i>
  <i name="platform" type="string">LinuxIFC </i>
  <i name="date" type="string">2013 08 19 </i>
  <i name="time" type="string">17:48:31 </i>
 </generator>
 <incar>
  <i type="string" name="SYSTEM"> Pt cube particle</i>
  <i type="string" name="PREC">normal</i>
  <i type="string" name="ALGO"> Fast</i>
  <i type="int" name="ISPIN">     1</i>
  <i type="int" name="IBRION">     2</i>
  <i name="EDIFF">      0.00000100</i>
  <i name="EDIFFG">     -0.01000000</i>
  <i type="int" name="NSW">   250</i>
  <i type="int" name="ISIF">     0</i>
  <i type="int" name="ISYM">     0</i>
  <i name="ENMAX">    274.00000000</i>
  <i name="ENCUT">    274.00000000</i>
  <i name="POTIM">      0.10000000</i>
  <i type="string" name="LREAL">Auto</i>
  <i type="int" name="ISMEAR">     0</i>
  <i type="logical" name="LWAVE"> F  </i>
  <i type="logical" name="LCHARG"> F  </i>
 </incar>
 <kpoints>
  <generation param="Monkhorst-Pack">
   <v type="int" name="divisions">       1        1        1 </v>
   <v name="usershift">      0.00000000       0.00000000       0.00000000 </v>
   <v name="genvec1">      1.00000000       0.00000000       0.00000000 </v>
   <v name="genvec2">      0.00000000       1.00000000       0.00000000 </v>
   <v name="genvec3">      0.00000000       0.00000000       1.00000000 </v>
   <v name="shift">      0.00000000       0.00000000       0.00000000 </v>
  </generation>
  <varray name="kpointlist" >
   <v>       0.00000000       0.00000000       0.00000000 </v>
  </varray>
  <varray name="weights" >
   <v>       1.00000000 </v>
  </varray>
 </kpoints>
 <parameters>
  <separator name="general" >
   <i type="string" name="SYSTEM">Pt cube particle</i>
   <i type="logical" name="LCOMPAT"> F  </i>
  </separator>
  <separator name="electronic" >
   <i type="string" name="PREC">normal</i>
   <i name="ENMAX">    274.00000000</i>
   <i name="ENAUG">    516.45600000</i>
   <i name="EDIFF">      0.00000100</i>
   <i type="int" name="IALGO">    68</i>
   <i type="int" name="IWAVPR">    11</i>
   <i type="int" name="NBANDS">   250</i>
   <i name="NELECT">    418.00000000</i>
   <i type="int" name="TURBO">     0</i>
   <i type="int" name="IRESTART">     0</i>
   <i type="int" name="NREBOOT">     0</i>
   <i type="int" name="NMIN">     0</i>
   <i name="EREF">      0.00000000</i>
   <separator name="electronic smearing" >
    <i type="int" name="ISMEAR">     0</i>
    <i name="SIGMA">      0.20000000</i>
    <i name="KSPACING">      0.50000000</i>
    <i type="logical" name="KGAMMA"> T  </i>
   </separator>
   <separator name="electronic projectors" >
    <i type="logical" name="LREAL"> T  </i>
    <v name="ROPT">     -0.00050000     -0.00050000</v>
    <i type="int" name="LMAXPAW">  -100</i>
    <i type="int" name="LMAXMIX">     2</i>
    <i type="logical" name="NLSPLINE"> F  </i>
   </separator>
   <separator name="electronic startup" >
    <i type="int" name="ISTART">     0</i>
    <i type="int" name="ICHARG">     2</i>
    <i type="int" name="INIWAV">     1</i>
   </separator>
   <separator name="electronic spin" >
    <i type="int" name="ISPIN">     1</i>
    <i type="logical" name="LNONCOLLINEAR"> F  </i>
    <v name="MAGMOM">      1.00000000      1.00000000      1.00000000      1.00000000      1.00000000      1.00000000      1.00000000      1.00000000      1.00000000      1.00000000      1.00000000      1.00000000      1.00000000      1.00000000      1.00000000      1.00000000      1.00000000      1.00000000      1.00000000      1.00000000
      1.00000000      1.00000000      1.00000000      1.00000000      1.00000000      1.00000000      1.00000000      1.00000000      1.00000000      1.00000000      1.00000000      1.00000000      1.00000000      1.00000000      1.00000000      1.00000000      1.00000000      1.00000000</v>
    <i name="NUPDOWN">     -1.00000000</i>
    <i type="logical" name="LSORBIT"> F  </i>
    <v name="SAXIS">      0.00000000      0.00000000      1.00000000</v>
    <i type="logical" name="LSPIRAL"> F  </i>
    <v name="QSPIRAL">      0.00000000      0.00000000      0.00000000</v>
    <i type="logical" name="LZEROZ"> F  </i>
   </separator>
   <separator name="electronic exchange-correlation" >
    <i type="logical" name="LASPH"> F  </i>
    <i type="logical" name="LMETAGGA"> F  </i>
   </separator>
   <separator name="electronic convergence" >
    <i type="int" name="NELM">    60</i>
    <i type="int" name="NELMDL">    -5</i>
    <i type="int" name="NELMIN">     2</i>
    <i name="ENINI">    274.00000000</i>
    <separator name="electronic convergence detail" >
     <i type="logical" name="LDIAG"> T  </i>
     <i type="logical" name="LSUBROT"> T  </i>
     <i name="WEIMIN">      0.00100000</i>
     <i name="EBREAK">      0.00000000</i>
     <i name="DEPER">      0.30000000</i>
     <i type="int" name="NRMM">     4</i>
     <i name="TIME">      0.40000000</i>
    </separator>
   </separator>
   <separator name="electronic mixer" >
    <i name="AMIX">      0.40000000</i>
    <i name="BMIX">      1.00000000</i>
    <i name="AMIN">      0.10000000</i>
    <i name="AMIX_MAG">      1.60000000</i>
    <i name="BMIX_MAG">      1.00000000</i>
    <separator name="electronic mixer details" >
     <i type="int" name="IMIX">     4</i>
     <i type="int" name="MAXMIX">   -45</i>
     <i name="WC">    100.00000000</i>
     <i type="int" name="INIMIX">     1</i>
     <i type="int" name="MIXPRE">     1</i>
     <i type="int" name="MREMOVE">     5</i>
    </separator>
   </separator>
   <separator name="electronic dipolcorrection" >
    <i type="logical" name="LDIPOL"> F  </i>
    <i type="logical" name="LMONO"> F  </i>
    <i type="int" name="IDIPOL">     0</i>
    <i name="EPSILON">      1.00000000</i>
    <v name="DIPOL">   -100.00000000   -100.00000000   -100.00000000</v>
    <i name="EFIELD">      0.00000000</i>
   </separator>
  </separator>
  <separator name="grids" >
   <i type="int" name="NGX">    80</i>
   <i type="int" name="NGY">    80</i>
   <i type="int" name="NGZ">    80</i>
   <i type="int" name="NGXF">   160</i>
   <i type="int" name="NGYF">   160</i>
   <i type="int" name="NGZF">   160</i>
   <i type="logical" name="ADDGRID"> F  </i>
  </separator>
  <separator name="ionic" >
   <i type="int" name="NSW">   250</i>
   <i type="int" name="IBRION">     2</i>
   <i type="int" name="ISIF">     0</i>
   <i name="PSTRESS">      0.00000000</i>
   <i name="EDIFFG">     -0.01000000</i>
   <i type="int" name="NFREE">     1</i>
   <i name="POTIM">      0.10000000</i>
   <i name="SMASS">     -3.00000000</i>
   <i name="SCALEE">      1.00000000</i>
  </separator>
  <separator name="ionic md" >
   <i name="TEBEG">      0.00010000</i>
   <i name="TEEND">      0.00010000</i>
   <i type="int" name="NBLOCK">     1</i>
   <i type="int" name="KBLOCK">   250</i>
   <i type="int" name="NPACO">   256</i>
   <i name="APACO">     16.00000000</i>
  </separator>
  <separator name="symmetry" >
   <i type="int" name="ISYM">     0</i>
   <i name="SYMPREC">      0.00001000</i>
  </separator>
  <separator name="dos" >
   <i type="logical" name="LORBIT"> F  </i>
   <v name="RWIGS">     -1.00000000     -1.00000000</v>
   <i type="int" name="NEDOS">   301</i>
   <i name="EMIN">     10.00000000</i>
   <i name="EMAX">    -10.00000000</i>
   <i name="EFERMI">      0.00000000</i>
  </separator>
  <separator name="writing" >
   <i type="int" name="NWRITE">     2</i>
   <i type="logical" name="LWAVE"> F  </i>
   <i type="logical" name="LCHARG"> F  </i>
   <i type="logical" name="LPARD"> F  </i>
   <i type="logical" name="LVTOT"> F  </i>
   <i type="logical" name="LVHAR"> F  </i>
   <i type="logical" name="LELF"> F  </i>
   <i type="logical" name="LOPTICS"> F  </i>
   <v name="STM">      0.00000000      0.00000000      0.00000000      0.00000000      0.00000000      0.00000000      0.00000000</v>
  </separator>
  <separator name="performance" >
   <i type="int" name="NPAR">     2</i>
   <i type="int" name="NSIM">     4</i>
   <i type="int" name="NBLK">    -1</i>
   <i type="logical" name="LPLANE"> T  </i>
   <i type="logical" name="LSCALAPACK"> T  </i>
   <i type="logical" name="LSCAAWARE"> F  </i>
   <i type="logical" name="LSCALU"> F  </i>
   <i type="logical" name="LASYNC"> F  </i>
   <i type="logical" name="LORBITALREAL"> F  </i>
  </separator>
  <separator name="miscellaneous" >
   <i type="int" name="IDIOT">     3</i>
   <i type="logical" name="LMUSIC"> F  </i>
   <v name="POMASS">     63.54600000    107.86800000</v>
   <v name="DARWINR">      0.00000000      0.00000000</v>
   <v name="DARWINV">      1.00000000      1.00000000</v>
   <i type="logical" name="LCORR"> T  </i>
  </separator>
  <i type="logical" name="GGA_COMPAT"> T  </i>
  <i type="logical" name="LBERRY"> F  </i>
  <i type="int" name="ICORELEVEL">     0</i>
  <i type="logical" name="LDAU"> F  </i>
  <i type="int" name="I_CONSTRAINED_M">     0</i>
  <separator name="electronic exchange-correlation" >
   <i type="string" name="GGA">--</i>
   <i type="int" name="VOSKOWN">     0</i>
   <i type="logical" name="LHFCALC"> F  </i>
   <i type="string" name="PRECFOCK"></i>
   <i type="logical" name="LSYMGRAD"> F  </i>
   <i type="logical" name="LHFONE"> F  </i>
   <i type="logical" name="LRHFCALC"> F  </i>
   <i type="logical" name="LTHOMAS"> F  </i>
   <i type="logical" name="LMODELHF"> F  </i>
   <i name="ENCUT4O">     -1.00000000</i>
   <i type="int" name="EXXOEP">     0</i>
   <i type="int" name="FOURORBIT">     0</i>
   <i name="AEXX">      0.00000000</i>
   <i name="HFALPHA">      0.00000000</i>
   <i name="MCALPHA">      0.00000000</i>
   <i name="ALDAX">      1.00000000</i>
   <i name="AGGAX">      1.00000000</i>
   <i name="ALDAC">      1.00000000</i>
   <i name="AGGAC">      1.00000000</i>
   <i type="int" name="NKREDX">     1</i>
   <i type="int" name="NKREDY">     1</i>
   <i type="int" name="NKREDZ">     1</i>
   <i type="logical" name="SHIFTRED"> F  </i>
   <i type="logical" name="ODDONLY"> F  </i>
   <i type="logical" name="EVENONLY"> F  </i>
   <i type="int" name="LMAXFOCK">     0</i>
   <i type="int" name="NMAXFOCKAE">     0</i>
   <i type="logical" name="LFOCKAEDFT"> F  </i>
   <i name="HFSCREEN">      0.00000000</i>
   <i name="HFSCREENC">      0.00000000</i>
   <i type="int" name="NBANDSGWLOW">     0</i>
  </separator>
  <separator name="vdW DFT" >
   <i type="logical" name="LUSE_VDW"> F  </i>
   <i name="Zab_VDW">     -0.84910000</i>
   <i name="PARAM1">      0.12340000</i>
   <i name="PARAM2">      1.00000000</i>
   <i name="PARAM3">      0.00000000</i>
  </separator>
  <separator name="model GW" >
   <i type="int" name="MODEL_GW">     0</i>
   <i name="MODEL_EPS0">     92.08421053</i>
   <i name="MODEL_ALPHA">      1.00000000</i>
  </separator>
  <separator name="linear response parameters" >
   <i type="logical" name="LEPSILON"> F  </i>
   <i type="logical" name="LRPA"> F  </i>
   <i type="logical" name="LNABLA"> F  </i>
   <i type="logical" name="LVEL"> F  </i>
   <i type="int" name="KINTER">     0</i>
   <i name="CSHIFT">      0.10000000</i>
   <i name="OMEGAMAX">     -1.00000000</i>
   <i name="DEG_THRESHOLD">      0.00200000</i>
  </separator>
  <separator name="orbital magnetization" >
   <i type="logical" name="NUCIND"> F  </i>
   <v name="MAGPOS">      0.00000000      0.00000000      0.00000000</v>
   <i type="logical" name="LNICSALL"> T  </i>
   <i type="logical" name="ORBITALMAG"> F  </i>
   <i type="logical" name="LMAGBLOCH"> F  </i>
   <i type="logical" name="LCHIMAG"> F  </i>
   <i type="logical" name="LGAUGE"> T  </i>
   <i type="int" name="MAGATOM">     0</i>
   <v name="MAGDIPOL">      0.00000000      0.00000000      0.00000000</v>
   <v name="AVECCONST">      0.00000000      0.00000000      0.00000000</v>
  </separator>
  <separator name="response functions" >
   <i type="logical" name="LADDER"> F  </i>
   <i type="logical" name="LFXC"> F  </i>
   <i type="logical" name="LHARTREE"> T  </i>
   <i type="int" name="IBSE">     0</i>
   <i type="logical" name="LTCTE"> F  </i>
   <i type="logical" name="LTETE"> F  </i>
   <i type="logical" name="LTRIPLET"> F  </i>
   <i type="logical" name="LFXCEPS"> F  </i>
   <i type="logical" name="L2ORDER"> F  </i>
   <i type="logical" name="LUSEW"> F  </i>
   <i name="ENCUTGW">     -2.00000000</i>
   <i name="ENCUTGWSOFT">     -2.00000000</i>
   <i name="ENCUTLF">     -1.00000000</i>
   <i type="int" name="LMAXMP2">    -1</i>
   <i name="SCISSOR">      0.00000000</i>
   <i type="int" name="NOMEGA">     0</i>
   <i type="int" name="NOMEGAR">     0</i>
   <i type="int" name="NBANDSGW">    -1</i>
   <i type="int" name="NBANDSO">    -1</i>
   <i type="int" name="NBANDSV">    -1</i>
   <i type="int" name="NELM">     1</i>
   <i type="int" name="DIM">     3</i>
   <i type="int" name="ANTIRES">     0</i>
   <i name="OMEGAMAX">    -30.00000000</i>
   <i name="OMEGATL">   -200.00000000</i>
   <i type="int" name="OMEGAGRID">     0</i>
   <i name="CSHIFT">     -0.10000000</i>
   <i type="logical" name="SELFENERGY"> F  </i>
   <i type="logical" name="LSPECTRAL"> F  </i>
   <i type="logical" name="ODDONLYGW"> F  </i>
   <i type="logical" name="EVENONLYGW"> F  </i>
   <i type="int" name="NKREDLFX">     1</i>
   <i type="int" name="NKREDLFY">     1</i>
   <i type="int" name="NKREDLFZ">     1</i>
   <i type="int" name="MAXMEM">  1800</i>
   <i type="int" name="TELESCOPE">     0</i>
  </separator>
 </parameters>
 <atominfo>
  <atoms>      38 </atoms>
  <types>       2 </types>
  <array name="atoms" >
   <dimension dim="1">ion</dimension>
   <field type="string">element</field>
   <field type="int">atomtype</field>
   <set>
    <rc><c>Cu</c><c>   1</c></rc>
    <rc><c>Cu</c><c>   1</c></rc>
    <rc><c>Cu</c><c>   1</c></rc>
    <rc><c>Cu</c><c>   1</c></rc>
    <rc><c>Cu</c><c>   1</c></rc>
    <rc><c>Cu</c><c>   1</c></rc>
    <rc><c>Cu</c><c>   1</c></rc>
    <rc><c>Cu</c><c>   1</c></rc>
    <rc><c>Cu</c><c>   1</c></rc>
    <rc><c>Cu</c><c>   1</c></rc>
    <rc><c>Cu</c><c>   1</c></rc>
    <rc><c>Cu</c><c>   1</c></rc>
    <rc><c>Cu</c><c>   1</c></rc>
    <rc><c>Cu</c><c>   1</c></rc>
    <rc><c>Cu</c><c>   1</c></rc>
    <rc><c>Cu</c><c>   1</c></rc>
    <rc><c>Cu</c><c>   1</c></rc>
    <rc><c>Cu</c><c>   1</c></rc>
    <rc><c>Cu</c><c>   1</c></rc>
    <rc><c>Cu</c><c>   1</c></rc>
    <rc><c>Cu</c><c>   1</c></rc>
    <rc><c>Cu</c><c>   1</c></rc>
    <rc><c>Cu</c><c>   1</c></rc>
    <rc><c>Cu</c><c>   1</c></rc>
    <rc><c>Cu</c><c>   1</c></rc>
    <rc><c>Cu</c><c>   1</c></rc>
    <rc><c>Cu</c><c>   1</c></rc>
    <rc><c>Cu</c><c>   1</c></rc>
    <rc><c>Cu</c><c>   1</c></rc>
    <rc><c>Cu</c><c>   1</c></rc>
    <rc><c>Cu</c><c>   1</c></rc>
    <rc><c>Cu</c><c>   1</c></rc>
    <rc><c>Ag</c><c>   2</c></rc>
    <rc><c>Ag</c><c>   2</c></rc>
    <rc><c>Ag</c><c>   2</c></rc>
    <rc><c>Ag</c><c>   2</c></rc>
    <rc><c>Ag</c><c>   2</c></rc>
    <rc><c>Ag</c><c>   2</c></rc>
   </set>
  </array>
  <array name="atomtypes" >
   <dimension dim="1">type</dimension>
   <field type="int">atomspertype</field>
   <field type="string">element</field>
   <field>mass</field>
   <field>valence</field>
   <field type="string">pseudopotential</field>
   <set>
    <rc><c>  32</c><c>Cu</c><c>     63.54600000</c><c>     11.00000000</c><c>  PAW Cu                                </c></rc>
    <rc><c>   6</c><c>Ag</c><c>    107.86800000</c><c>     11.00000000</c><c>  PAW Ag                                </c></rc>
   </set>
  </array>
 </atominfo>
 <structure name="initialpos" >
  <crystal>
   <varray name="basis" >
    <v>      18.00000000       0.00000000       0.00000000 </v>
    <v>       0.00000000      18.00000000       0.00000000 </v>
    <v>       0.00000000       0.00000000      18.00000000 </v>
   </varray>
   <i name="volume">   5832.00000000 </i>
   <varray name="rec_basis" >
    <v>       0.05555556       0.00000000       0.00000000 </v>
    <v>       0.00000000       0.05555556       0.00000000 </v>
    <v>       0.00000000       0.00000000       0.05555556 </v>
   </varray>
  </crystal>
  <varray name="positions" >
   <v>       0.72257430       0.57309990       0.50020326 </v>
   <v>       0.57310093       0.72257403       0.50020304 </v>
   <v>       0.27768266       0.57328361       0.50008765 </v>
   <v>       0.42649001       0.72224946       0.50032579 </v>
   <v>       0.27752107       0.42669729       0.49967158 </v>
   <v>       0.42669656       0.27752145       0.49967177 </v>
   <v>       0.72224904       0.42648933       0.50032604 </v>
   <v>       0.57328263       0.27768254       0.50008798 </v>
   <v>       0.66896875       0.49995173       0.61818177 </v>
   <v>       0.33052645       0.49955494       0.61777083 </v>
   <v>       0.49995230       0.66896893       0.61818181 </v>
   <v>       0.49955423       0.33052680       0.61777078 </v>
   <v>       0.64859535       0.64859483       0.60775332 </v>
   <v>       0.35179083       0.64787838       0.60867190 </v>
   <v>       0.35095914       0.35095981       0.60785692 </v>
   <v>       0.64787761       0.35179055       0.60867192 </v>
   <v>       0.66669582       0.49992260       0.38142030 </v>
   <v>       0.33324668       0.50023761       0.38106483 </v>
   <v>       0.49992331       0.66669587       0.38141995 </v>
   <v>       0.50023715       0.33324678       0.38106528 </v>
   <v>       0.64822278       0.64822213       0.39408735 </v>
   <v>       0.35147837       0.64865839       0.39385916 </v>
   <v>       0.35173155       0.35173198       0.39365192 </v>
   <v>       0.64865782       0.35147791       0.39385971 </v>
   <v>       0.57638974       0.57638949       0.70826448 </v>
   <v>       0.42473085       0.57491493       0.70837530 </v>
   <v>       0.42323825       0.42323859       0.70830097 </v>
   <v>       0.57491455       0.42473071       0.70837515 </v>
   <v>       0.57501197       0.57501134       0.28935832 </v>
   <v>       0.42501837       0.57524295       0.28921835 </v>
   <v>       0.42516456       0.42516441       0.28927688 </v>
   <v>       0.57524302       0.42501779       0.28921884 </v>
   <v>       0.49988834       0.49988836       0.60266917 </v>
   <v>       0.42580374       0.42580397       0.49972068 </v>
   <v>       0.42585642       0.57400848       0.49972903 </v>
   <v>       0.49998908       0.49998890       0.39412654 </v>
   <v>       0.57405800       0.57405761       0.49977677 </v>
   <v>       0.57400827       0.42585608       0.49972915 </v>
  </varray>
 </structure>
 <calculation>
  <scstep>
   <time name="dav">    1.79    1.80</time>
   <time name="total">    1.98    2.00</time>
   <energy>
    <i name="alphaZ">    334.47473255 </i>
    <i name="ewald">  80910.05328024 </i>
    <i name="hartreedc">-126715.27621410 </i>
    <i name="XCdc">   1301.19036282 </i>
    <i name="pawpsdc">  39879.30097310 </i>
    <i name="pawaedc"> -44228.02017195 </i>
    <i name="eentropy">     -0.46361775 </i>
    <i name="bandstr">   -136.84474476 </i>
    <i name="atom">  50807.32091778 </i>
    <i name="e_fr_energy">   2151.73551792 </i>
    <i name="e_wo_entrp">   2152.19913568 </i>
    <i name="e_0_energy">   2151.96732680 </i>
   </energy>
  </scstep>
  <scstep>
   <time name="dav">    1.84    1.84</time>
   <time name="total">    1.84    1.85</time>
   <energy>
    <i name="e_fr_energy">    124.62101602 </i>
    <i name="e_wo_entrp">    125.07066951 </i>
    <i name="e_0_energy">    124.84584276 </i>
   </energy>
  </scstep>
  <scstep>
   <time name="dav">    2.03    2.03</time>
   <time name="total">    2.03    2.04</time>
   <energy>
    <i name="e_fr_energy">   -100.11940504 </i>
    <i name="e_wo_entrp">    -99.37630140 </i>
    <i name="e_0_energy">    -99.74785322 </i>
   </energy>
  </scstep>
  <scstep>
   <time name="dav">    1.71    1.71</time>
   <time name="total">    1.71    1.71</time>
   <energy>
    <i name="e_fr_energy">   -114.17917978 </i>
    <i name="e_wo_entrp">   -113.42903385 </i>
    <i name="e_0_energy">   -113.80410682 </i>
   </energy>
  </scstep>
  <scstep>
   <time name="dav">    1.73    1.73</time>
   <time name="total">    1.85    1.85</time>
   <energy>
    <i name="e_fr_energy">   -114.37255673 </i>
    <i name="e_wo_entrp">   -113.62201323 </i>
    <i name="e_0_energy">   -113.99728498 </i>
   </energy>
  </scstep>
  <scstep>
   <time name="diag">    0.27    0.27</time>
   <time name="diis">    0.87    0.87</time>
   <time name="orth">    0.03    0.03</time>
   <time name="total">    1.43    1.44</time>
   <energy>
    <i name="e_fr_energy">   -109.12258590 </i>
    <i name="e_wo_entrp">   -108.32582142 </i>
    <i name="e_0_energy">   -108.72420366 </i>
   </energy>
  </scstep>
  <scstep>
   <time name="diag">    0.26    0.26</time>
   <time name="diis">    0.86    0.87</time>
   <time name="orth">    0.03    0.03</time>
   <time name="total">    1.43    1.43</time>
   <energy>
    <i name="e_fr_energy">    -99.66117772 </i>
    <i name="e_wo_entrp">    -99.00215022 </i>
    <i name="e_0_energy">    -99.33166397 </i>
   </energy>
  </scstep>
  <scstep>
   <time name="diag">    0.26    0.26</time>
   <time name="diis">    0.86    0.86</time>
   <time name="orth">    0.03    0.03</time>
   <time name="total">    1.43    1.46</time>
   <energy>
    <i name="e_fr_energy">    -99.41274249 </i>
    <i name="e_wo_entrp">    -98.71855629 </i>
    <i name="e_0_energy">    -99.06564939 </i>
   </energy>
  </scstep>
  <scstep>
   <time name="diag">    0.26    0.26</time>
   <time name="diis">    0.86    0.86</time>
   <time name="orth">    0.03    0.03</time>
   <time name="total">    1.43    1.43</time>
   <energy>
    <i name="e_fr_energy">    -99.34227292 </i>
    <i name="e_wo_entrp">    -98.66174947 </i>
    <i name="e_0_energy">    -99.00201119 </i>
   </energy>
  </scstep>
  <scstep>
   <time name="diag">    0.26    0.26</time>
   <time name="diis">    0.86    0.86</time>
   <time name="orth">    0.03    0.03</time>
   <time name="total">    1.43    1.43</time>
   <energy>
    <i name="e_fr_energy">    -99.30260729 </i>
    <i name="e_wo_entrp">    -98.62824612 </i>
    <i name="e_0_energy">    -98.96542671 </i>
   </energy>
  </scstep>
  <scstep>
   <time name="diag">    0.26    0.26</time>
   <time name="diis">    0.87    0.87</time>
   <time name="orth">    0.03    0.03</time>
   <time name="total">    1.43    1.44</time>
   <energy>
    <i name="e_fr_energy">    -99.28308432 </i>
    <i name="e_wo_entrp">    -98.61573594 </i>
    <i name="e_0_energy">    -98.94941013 </i>
   </energy>
  </scstep>
  <scstep>
   <time name="diag">    0.26    0.26</time>
   <time name="diis">    0.86    0.86</time>
   <time name="orth">    0.03    0.03</time>
   <time name="total">    1.43    1.43</time>
   <energy>
    <i name="e_fr_energy">    -99.28147608 </i>
    <i name="e_wo_entrp">    -98.61447572 </i>
    <i name="e_0_energy">    -98.94797590 </i>
   </energy>
  </scstep>
  <scstep>
   <time name="diag">    0.26    0.26</time>
   <time name="diis">    0.86    0.86</time>
   <time name="orth">    0.03    0.03</time>
   <time name="total">    1.43    1.48</time>
   <energy>
    <i name="e_fr_energy">    -99.28508384 </i>
    <i name="e_wo_entrp">    -98.61925543 </i>
    <i name="e_0_energy">    -98.95216964 </i>
   </energy>
  </scstep>
  <scstep>
   <time name="diag">    0.26    0.26</time>
   <time name="diis">    0.86    0.86</time>
   <time name="orth">    0.04    0.04</time>
   <time name="total">    1.44    1.44</time>
   <energy>
    <i name="e_fr_energy">    -99.29181766 </i>
    <i name="e_wo_entrp">    -98.62738523 </i>
    <i name="e_0_energy">    -98.95960144 </i>
   </energy>
  </scstep>
  <scstep>
   <time name="diag">    0.26    0.27</time>
   <time name="diis">    0.86    0.86</time>
   <time name="orth">    0.03    0.03</time>
   <time name="total">    1.44    1.44</time>
   <energy>
    <i name="e_fr_energy">    -99.30170882 </i>
    <i name="e_wo_entrp">    -98.63718067 </i>
    <i name="e_0_energy">    -98.96944474 </i>
   </energy>
  </scstep>
  <scstep>
   <time name="diag">    0.27    0.27</time>
   <time name="diis">    0.86    0.87</time>
   <time name="orth">    0.03    0.03</time>
   <time name="total">    1.44    1.45</time>
   <energy>
    <i name="e_fr_energy">    -99.30553595 </i>
    <i name="e_wo_entrp">    -98.64103704 </i>
    <i name="e_0_energy">    -98.97328650 </i>
   </energy>
  </scstep>
  <scstep>
   <time name="diag">    0.26    0.26</time>
   <time name="diis">    0.86    0.87</time>
   <time name="orth">    0.03    0.04</time>
   <time name="total">    1.44    1.45</time>
   <energy>
    <i name="e_fr_energy">    -99.30726360 </i>
    <i name="e_wo_entrp">    -98.64320068 </i>
    <i name="e_0_energy">    -98.97523214 </i>
   </energy>
  </scstep>
  <scstep>
   <time name="diag">    0.26    0.26</time>
   <time name="diis">    0.85    0.85</time>
   <time name="orth">    0.03    0.03</time>
   <time name="total">    1.43    1.43</time>
   <energy>
    <i name="e_fr_energy">    -99.30788253 </i>
    <i name="e_wo_entrp">    -98.64374934 </i>
    <i name="e_0_energy">    -98.97581594 </i>
   </energy>
  </scstep>
  <scstep>
   <time name="diag">    0.26    0.27</time>
   <time name="diis">    0.84    0.84</time>
   <time name="orth">    0.03    0.03</time>
   <time name="total">    1.42    1.43</time>
   <energy>
    <i name="e_fr_energy">    -99.30824510 </i>
    <i name="e_wo_entrp">    -98.64406797 </i>
    <i name="e_0_energy">    -98.97615653 </i>
   </energy>
  </scstep>
  <scstep>
   <time name="diag">    0.26    0.26</time>
   <time name="diis">    0.84    0.84</time>
   <time name="orth">    0.03    0.03</time>
   <time name="total">    1.42    1.43</time>
   <energy>
    <i name="e_fr_energy">    -99.30846352 </i>
    <i name="e_wo_entrp">    -98.64445574 </i>
    <i name="e_0_energy">    -98.97645963 </i>
   </energy>
  </scstep>
  <scstep>
   <time name="diag">    0.27    0.27</time>
   <time name="diis">    0.61    0.61</time>
   <time name="orth">    0.04    0.04</time>
   <time name="total">    1.20    1.20</time>
   <energy>
    <i name="e_fr_energy">    -99.30851440 </i>
    <i name="e_wo_entrp">    -98.64455640 </i>
    <i name="e_0_energy">    -98.97653540 </i>
   </energy>
  </scstep>
  <scstep>
   <time name="diag">    0.26    0.26</time>
   <time name="diis">    0.63    0.63</time>
   <time name="orth">    0.03    0.03</time>
   <time name="total">    1.21    1.29</time>
   <energy>
    <i name="e_fr_energy">    -99.30856051 </i>
    <i name="e_wo_entrp">    -98.64464811 </i>
    <i name="e_0_energy">    -98.97660431 </i>
   </energy>
  </scstep>
  <scstep>
   <time name="diag">    0.26    0.27</time>
   <time name="diis">    0.61    0.61</time>
   <time name="orth">    0.04    0.04</time>
   <time name="total">    1.19    1.19</time>
   <energy>
    <i name="e_fr_energy">    -99.30857468 </i>
    <i name="e_wo_entrp">    -98.64469301 </i>
    <i name="e_0_energy">    -98.97663385 </i>
   </energy>
  </scstep>
  <scstep>
   <time name="diag">    0.26    0.26</time>
   <time name="diis">    0.54    0.54</time>
   <time name="orth">    0.03    0.03</time>
   <time name="total">    1.01    1.08</time>
   <energy>
    <i name="alphaZ">    334.47473255 </i>
    <i name="ewald">  80910.05328024 </i>
    <i name="hartreedc">-126500.33550512 </i>
    <i name="XCdc">   1277.97968977 </i>
    <i name="pawpsdc">  39712.13103262 </i>
    <i name="pawaedc"> -44080.03636311 </i>
    <i name="eentropy">     -0.66387859 </i>
    <i name="bandstr">  -2560.23248162 </i>
    <i name="atom">  50807.32091778 </i>
    <i name="e_fr_energy">    -99.30857548 </i>
    <i name="e_wo_entrp">    -98.64469689 </i>
    <i name="e_0_energy">    -98.97663619 </i>
   </energy>
  </scstep>
  <structure>
   <crystal>
    <varray name="basis" >
     <v>      18.00000000       0.00000000       0.00000000 </v>
     <v>       0.00000000      18.00000000       0.00000000 </v>
     <v>       0.00000000       0.00000000      18.00000000 </v>
    </varray>
    <i name="volume">   5832.00000000 </i>
    <varray name="rec_basis" >
     <v>       0.05555556       0.00000000       0.00000000 </v>
     <v>       0.00000000       0.05555556       0.00000000 </v>
     <v>       0.00000000       0.00000000       0.05555556 </v>
    </varray>
   </crystal>
   <varray name="positions" >
    <v>       0.72257430       0.57309990       0.50020326 </v>
    <v>       0.57310093       0.72257403       0.50020304 </v>
    <v>       0.27768266       0.57328361       0.50008765 </v>
    <v>       0.42649001       0.72224946       0.50032579 </v>
    <v>       0.27752107       0.42669729       0.49967158 </v>
    <v>       0.42669656       0.27752145       0.49967177 </v>
    <v>       0.72224904       0.42648933       0.50032604 </v>
    <v>       0.57328263       0.27768254       0.50008798 </v>
    <v>       0.66896875       0.49995173       0.61818177 </v>
    <v>       0.33052645       0.49955494       0.61777083 </v>
    <v>       0.49995230       0.66896893       0.61818181 </v>
    <v>       0.49955423       0.33052680       0.61777078 </v>
    <v>       0.64859535       0.64859483       0.60775332 </v>
    <v>       0.35179083       0.64787838       0.60867190 </v>
    <v>       0.35095914       0.35095981       0.60785692 </v>
    <v>       0.64787761       0.35179055       0.60867192 </v>
    <v>       0.66669582       0.49992260       0.38142030 </v>
    <v>       0.33324668       0.50023761       0.38106483 </v>
    <v>       0.49992331       0.66669587       0.38141995 </v>
    <v>       0.50023715       0.33324678       0.38106528 </v>
    <v>       0.64822278       0.64822213       0.39408735 </v>
    <v>       0.35147837       0.64865839       0.39385916 </v>
    <v>       0.35173155       0.35173198       0.39365192 </v>
    <v>       0.64865782       0.35147791       0.39385971 </v>
    <v>       0.57638974       0.57638949       0.70826448 </v>
    <v>       0.42473085       0.57491493       0.70837530 </v>
    <v>       0.42323825       0.42323859       0.70830097 </v>
    <v>       0.57491455       0.42473071       0.70837515 </v>
    <v>       0.57501197       0.57501134       0.28935832 </v>
    <v>       0.42501837       0.57524295       0.28921835 </v>
    <v>       0.42516456       0.42516441       0.28927688 </v>
    <v>       0.57524302       0.42501779       0.28921884 </v>
    <v>       0.49988834       0.49988836       0.60266917 </v>
    <v>       0.42580374       0.42580397       0.49972068 </v>
    <v>       0.42585642       0.57400848       0.49972903 </v>
    <v>       0.49998908       0.49998890       0.39412654 </v>
    <v>       0.57405800       0.57405761       0.49977677 </v>
    <v>       0.57400827       0.42585608       0.49972915 </v>
   </varray>
  </structure>
  <varray name="forces" >
   <v>      -0.74034591      -0.40332991       0.00654478 </v>
   <v>      -0.40335116      -0.74034364       0.00654537 </v>
   <v>       0.72692027      -0.40191876       0.00191550 </v>
   <v>       0.40340469      -0.72682774       0.00555860 </v>
   <v>       0.73005485       0.40078870       0.00142303 </v>
   <v>       0.40079077       0.73003549       0.00142214 </v>
   <v>      -0.72679762       0.40340511       0.00555887 </v>
   <v>      -0.40190149       0.72690175       0.00191358 </v>
   <v>      -0.59871800       0.00455587      -0.38656909 </v>
   <v>       0.60018287      -0.00961059      -0.38555465 </v>
   <v>       0.00455394      -0.59872027      -0.38657472 </v>
   <v>      -0.00961430       0.60017933      -0.38554779 </v>
   <v>      -0.58798351      -0.58797761      -0.31594393 </v>
   <v>       0.59009242      -0.58915966      -0.33784243 </v>
   <v>       0.59664556       0.59664248      -0.32501374 </v>
   <v>      -0.58913305       0.59008237      -0.33783286 </v>
   <v>      -0.59078693      -0.00291975       0.39992777 </v>
   <v>       0.59427320       0.00190638       0.39966375 </v>
   <v>      -0.00292493      -0.59079526       0.39993454 </v>
   <v>       0.00190414       0.59426080       0.39965449 </v>
   <v>      -0.60384310      -0.60383425       0.24380706 </v>
   <v>       0.61103475      -0.61196146       0.24120404 </v>
   <v>       0.60717039       0.60716854       0.23819700 </v>
   <v>      -0.61194189       0.61102681       0.24119237 </v>
   <v>      -0.22916441      -0.22916239      -0.82375794 </v>
   <v>       0.21989157      -0.22560707      -0.80362456 </v>
   <v>       0.23012948       0.23013124      -0.83379207 </v>
   <v>      -0.22560691       0.21989282      -0.80361261 </v>
   <v>      -0.18068369      -0.18068060       0.83425488 </v>
   <v>       0.17732079      -0.17361723       0.83484508 </v>
   <v>       0.18075236       0.18076035       0.82755489 </v>
   <v>      -0.17361525       0.17731874       0.83482346 </v>
   <v>      -0.00206069      -0.00204972       2.45970830 </v>
   <v>      -1.48705298      -1.48704066      -0.08467470 </v>
   <v>      -1.48903674       1.48976891      -0.08070697 </v>
   <v>       0.00108507       0.00110809      -1.93364032 </v>
   <v>       1.48862361       1.48864603      -0.08026423 </v>
   <v>       1.48973183      -1.48902324      -0.08069686 </v>
  </varray>
  <energy>
   <i name="e_fr_energy">    -99.30857548 </i>
   <i name="e_wo_entrp">    -98.97663619 </i>
   <i name="e_0_energy">     -0.66387859 </i>
  </energy>
  <time name="totalsc">   36.63   36.96</time>
 </calculation>
 <calculation>
  <scstep>
   <time name="dav">    1.60    1.60</time>
   <time name="total">    1.88    1.89</time>
   <energy>
    <i name="alphaZ">    334.47473255 </i>
    <i name="ewald">  81254.59593016 </i>
    <i name="hartreedc">-126844.08807377 </i>
    <i name="XCdc">   1278.31640041 </i>
    <i name="pawpsdc">  39712.12665922 </i>
    <i name="pawaedc"> -44080.03508546 </i>
    <i name="eentropy">     -0.66788591 </i>
    <i name="bandstr">  -2561.78264858 </i>
    <i name="atom">  50807.32091778 </i>
    <i name="e_fr_energy">    -99.73905359 </i>
    <i name="e_wo_entrp">    -99.07116768 </i>
    <i name="e_0_energy">    -99.40511063 </i>
   </energy>
  </scstep>
  <scstep>
   <time name="diag">    0.26    0.26</time>
   <time name="diis">    0.86    0.87</time>
   <time name="orth">    0.03    0.03</time>
   <time name="total">    1.44    1.44</time>
   <energy>
    <i name="e_fr_energy">    -99.75292733 </i>
    <i name="e_wo_entrp">    -99.08552113 </i>
    <i name="e_0_energy">    -99.41922423 </i>
   </energy>
  </scstep>
  <scstep>
   <time name="diag">    0.26    0.26</time>
   <time name="diis">    0.87    0.87</time>
   <time name="orth">    0.03    0.03</time>
   <time name="total">    1.44    1.45</time>
   <energy>
    <i name="e_fr_energy">    -99.75298238 </i>
    <i name="e_wo_entrp">    -99.08591343 </i>
    <i name="e_0_energy">    -99.41944790 </i>
   </energy>
  </scstep>
  <scstep>
   <time name="diag">    0.26    0.26</time>
   <time name="diis">    0.86    0.86</time>
   <time name="orth">    0.03    0.03</time>
   <time name="total">    1.44    1.44</time>
   <energy>
    <i name="e_fr_energy">    -99.75272404 </i>
    <i name="e_wo_entrp">    -99.08500646 </i>
    <i name="e_0_energy">    -99.41886525 </i>
   </energy>
  </scstep>
  <scstep>
   <time name="diag">    0.26    0.26</time>
   <time name="diis">    0.86    0.86</time>
   <time name="orth">    0.03    0.03</time>
   <time name="total">    1.44    1.46</time>
   <energy>
    <i name="e_fr_energy">    -99.75247244 </i>
    <i name="e_wo_entrp">    -99.08395564 </i>
    <i name="e_0_energy">    -99.41821404 </i>
   </energy>
  </scstep>
  <scstep>
   <time name="diag">    0.26    0.26</time>
   <time name="diis">    0.86    0.87</time>
   <time name="orth">    0.03    0.03</time>
   <time name="total">    1.44    1.45</time>
   <energy>
    <i name="e_fr_energy">    -99.75241901 </i>
    <i name="e_wo_entrp">    -99.08434117 </i>
    <i name="e_0_energy">    -99.41838009 </i>
   </energy>
  </scstep>
  <scstep>
   <time name="diag">    0.26    0.26</time>
   <time name="diis">    0.86    0.86</time>
   <time name="orth">    0.03    0.03</time>
   <time name="total">    1.44    1.44</time>
   <energy>
    <i name="e_fr_energy">    -99.75240070 </i>
    <i name="e_wo_entrp">    -99.08442342 </i>
    <i name="e_0_energy">    -99.41841206 </i>
   </energy>
  </scstep>
  <scstep>
   <time name="diag">    0.27    0.27</time>
   <time name="diis">    0.65    0.65</time>
   <time name="orth">    0.03    0.03</time>
   <time name="total">    1.23    1.24</time>
   <energy>
    <i name="e_fr_energy">    -99.75239797 </i>
    <i name="e_wo_entrp">    -99.08451693 </i>
    <i name="e_0_energy">    -99.41845745 </i>
   </energy>
  </scstep>
  <scstep>
   <time name="diag">    0.26    0.26</time>
   <time name="diis">    0.52    0.52</time>
   <time name="orth">    0.03    0.03</time>
   <time name="total">    0.99    1.04</time>
   <energy>
    <i name="alphaZ">    334.47473255 </i>
    <i name="ewald">  81254.59593016 </i>
    <i name="hartreedc">-126841.60006197 </i>
    <i name="XCdc">   1278.16088148 </i>
    <i name="pawpsdc">  39721.75883736 </i>
    <i name="pawaedc"> -44090.00982448 </i>
    <i name="eentropy">     -0.66788112 </i>
    <i name="bandstr">  -2563.78592933 </i>
    <i name="atom">  50807.32091778 </i>
    <i name="e_fr_energy">    -99.75239756 </i>
    <i name="e_wo_entrp">    -99.08451644 </i>
    <i name="e_0_energy">    -99.41845700 </i>
   </energy>
  </scstep>
  <structure>
   <crystal>
    <varray name="basis" >
     <v>      18.00000000       0.00000000       0.00000000 </v>
     <v>       0.00000000      18.00000000       0.00000000 </v>
     <v>       0.00000000       0.00000000      18.00000000 </v>
    </varray>
    <i name="volume">   5832.00000000 </i>
    <varray name="rec_basis" >
     <v>       0.05555556       0.00000000       0.00000000 </v>
     <v>       0.00000000       0.05555556       0.00000000 </v>
     <v>       0.00000000       0.00000000       0.05555556 </v>
    </varray>
   </crystal>
   <varray name="positions" >
    <v>       0.72217746       0.57288370       0.50020677 </v>
    <v>       0.57288472       0.72217718       0.50020655 </v>
    <v>       0.27807231       0.57306817       0.50008868 </v>
    <v>       0.42670625       0.72185985       0.50032877 </v>
    <v>       0.27791240       0.42691213       0.49967234 </v>
    <v>       0.42691139       0.27791277       0.49967253 </v>
    <v>       0.72185945       0.42670557       0.50032902 </v>
    <v>       0.57306720       0.27807218       0.50008900 </v>
    <v>       0.66864782       0.49995417       0.61797456 </v>
    <v>       0.33084817       0.49954979       0.61756417 </v>
    <v>       0.49995475       0.66864800       0.61797459 </v>
    <v>       0.49954907       0.33084851       0.61756412 </v>
    <v>       0.64828017       0.64827965       0.60758397 </v>
    <v>       0.35210714       0.64756257       0.60849081 </v>
    <v>       0.35127895       0.35127963       0.60768271 </v>
    <v>       0.64756182       0.35210685       0.60849083 </v>
    <v>       0.66637914       0.49992103       0.38163467 </v>
    <v>       0.33356523       0.50023863       0.38127907 </v>
    <v>       0.49992174       0.66637919       0.38163433 </v>
    <v>       0.50023817       0.33356532       0.38127951 </v>
    <v>       0.64789911       0.64789846       0.39421804 </v>
    <v>       0.35180590       0.64833036       0.39398845 </v>
    <v>       0.35205701       0.35205744       0.39377960 </v>
    <v>       0.64832980       0.35180544       0.39398900 </v>
    <v>       0.57626690       0.57626665       0.70782292 </v>
    <v>       0.42484872       0.57479399       0.70794453 </v>
    <v>       0.42336160       0.42336194       0.70785404 </v>
    <v>       0.57479362       0.42484858       0.70794439 </v>
    <v>       0.57491512       0.57491449       0.28980550 </v>
    <v>       0.42511342       0.57514989       0.28966585 </v>
    <v>       0.42526145       0.42526130       0.28972048 </v>
    <v>       0.57514996       0.42511284       0.28966633 </v>
    <v>       0.49988724       0.49988726       0.60398764 </v>
    <v>       0.42500663       0.42500687       0.49967529 </v>
    <v>       0.42505825       0.57480704       0.49968577 </v>
    <v>       0.49998966       0.49998950       0.39309005 </v>
    <v>       0.57485595       0.57485557       0.49973374 </v>
    <v>       0.57480681       0.42505792       0.49968589 </v>
   </varray>
  </structure>
  <varray name="forces" >
   <v>      -0.68303978      -0.39531771       0.00533759 </v>
   <v>      -0.39534250      -0.68303888       0.00534047 </v>
   <v>       0.66289697      -0.39416970       0.00242897 </v>
   <v>       0.39760383      -0.66495529       0.00454700 </v>
   <v>       0.67102238       0.39274563       0.00186151 </v>
   <v>       0.39274822       0.67100180       0.00185977 </v>
   <v>      -0.66492490       0.39760542       0.00454287 </v>
   <v>      -0.39415118       0.66288411       0.00242162 </v>
   <v>      -0.59698629       0.00493618      -0.38688324 </v>
   <v>       0.59815795      -0.00916112      -0.38221981 </v>
   <v>       0.00492963      -0.59699086      -0.38689050 </v>
   <v>      -0.00916647       0.59815248      -0.38221263 </v>
   <v>      -0.55919135      -0.55918018      -0.29227368 </v>
   <v>       0.55956795      -0.55933560      -0.31185671 </v>
   <v>       0.56968649       0.56968367      -0.29958887 </v>
   <v>      -0.55930724       0.55955521      -0.31184778 </v>
   <v>      -0.58080920      -0.00161489       0.39628515 </v>
   <v>       0.58560659       0.00103760       0.39605741 </v>
   <v>      -0.00161944      -0.58081558       0.39629251 </v>
   <v>       0.00103757       0.58560037       0.39604916 </v>
   <v>      -0.56966638      -0.56965306       0.21048131 </v>
   <v>       0.58061289      -0.58245761       0.20885284 </v>
   <v>       0.57549072       0.57548389       0.20581510 </v>
   <v>      -0.58244123       0.58061065       0.20884103 </v>
   <v>      -0.20748122      -0.20747599      -0.77739390 </v>
   <v>       0.19780987      -0.20384596      -0.75581488 </v>
   <v>       0.21030461       0.21030759      -0.78977549 </v>
   <v>      -0.20384700       0.19781084      -0.75579371 </v>
   <v>      -0.15996527      -0.15996158       0.78767887 </v>
   <v>       0.15633233      -0.15455123       0.79234075 </v>
   <v>       0.15808699       0.15809240       0.78303146 </v>
   <v>      -0.15455318       0.15633253       0.79232483 </v>
   <v>      -0.00225431      -0.00224149       1.92412384 </v>
   <v>      -1.14128001      -1.14126436      -0.05122269 </v>
   <v>      -1.14318956       1.14338283      -0.04907572 </v>
   <v>       0.00135545       0.00136316      -1.49640719 </v>
   <v>       1.14260819       1.14261719      -0.04817949 </v>
   <v>       1.14335789      -1.14317245      -0.04907779 </v>
  </varray>
  <energy>
   <i name="e_fr_energy">    -99.75239756 </i>
   <i name="e_wo_entrp">    -99.41845700 </i>
   <i name="e_0_energy">     -0.66788112 </i>
  </energy>
  <time name="totalsc">   13.86   13.97</time>
 </calculation>
 <calculation>
  <scstep>
   <time name="dav">    1.56    1.56</time>
   <time name="total">    1.84    1.85</time>
   <energy>
    <i name="alphaZ">    334.47473255 </i>
    <i name="ewald">  82309.27397452 </i>
    <i name="hartreedc">-127892.39189305 </i>
    <i name="XCdc">   1279.33545842 </i>
    <i name="pawpsdc">  39721.71979743 </i>
    <i name="pawaedc"> -44089.96771365 </i>
    <i name="eentropy">     -0.68147413 </i>
    <i name="bandstr">  -2569.63234539 </i>
    <i name="atom">  50807.32091778 </i>
    <i name="e_fr_energy">   -100.54854551 </i>
    <i name="e_wo_entrp">    -99.86707138 </i>
    <i name="e_0_energy">   -100.20780844 </i>
   </energy>
  </scstep>
  <scstep>
   <time name="diag">    0.26    0.26</time>
   <time name="diis">    0.86    0.87</time>
   <time name="orth">    0.03    0.03</time>
   <time name="total">    1.44    1.44</time>
   <energy>
    <i name="e_fr_energy">   -100.68201859 </i>
    <i name="e_wo_entrp">   -100.00601636 </i>
    <i name="e_0_energy">   -100.34401748 </i>
   </energy>
  </scstep>
  <scstep>
   <time name="diag">    0.26    0.26</time>
   <time name="diis">    0.87    0.87</time>
   <time name="orth">    0.03    0.03</time>
   <time name="total">    1.44    1.45</time>
   <energy>
    <i name="e_fr_energy">   -100.68124894 </i>
    <i name="e_wo_entrp">   -100.00432188 </i>
    <i name="e_0_energy">   -100.34278541 </i>
   </energy>
  </scstep>
  <scstep>
   <time name="diag">    0.26    0.26</time>
   <time name="diis">    0.86    0.87</time>
   <time name="orth">    0.03    0.03</time>
   <time name="total">    1.44    1.44</time>
   <energy>
    <i name="e_fr_energy">   -100.67911814 </i>
    <i name="e_wo_entrp">    -99.99996836 </i>
    <i name="e_0_energy">   -100.33954325 </i>
   </energy>
  </scstep>
  <scstep>
   <time name="diag">    0.26    0.26</time>
   <time name="diis">    0.87    0.87</time>
   <time name="orth">    0.03    0.03</time>
   <time name="total">    1.44    1.44</time>
   <energy>
    <i name="e_fr_energy">   -100.67731504 </i>
    <i name="e_wo_entrp">    -99.99601687 </i>
    <i name="e_0_energy">   -100.33666595 </i>
   </energy>
  </scstep>
  <scstep>
   <time name="diag">    0.26    0.26</time>
   <time name="diis">    0.86    0.87</time>
   <time name="orth">    0.03    0.03</time>
   <time name="total">    1.43    1.44</time>
   <energy>
    <i name="e_fr_energy">   -100.67683950 </i>
    <i name="e_wo_entrp">    -99.99702831 </i>
    <i name="e_0_energy">   -100.33693391 </i>
   </energy>
  </scstep>
  <scstep>
   <time name="diag">    0.26    0.26</time>
   <time name="diis">    0.86    0.87</time>
   <time name="orth">    0.03    0.03</time>
   <time name="total">    1.43    1.44</time>
   <energy>
    <i name="e_fr_energy">   -100.67671771 </i>
    <i name="e_wo_entrp">    -99.99692177 </i>
    <i name="e_0_energy">   -100.33681974 </i>
   </energy>
  </scstep>
  <scstep>
   <time name="diag">    0.26    0.26</time>
   <time name="diis">    0.86    0.86</time>
   <time name="orth">    0.03    0.03</time>
   <time name="total">    1.43    1.44</time>
   <energy>
    <i name="e_fr_energy">   -100.67668836 </i>
    <i name="e_wo_entrp">    -99.99728642 </i>
    <i name="e_0_energy">   -100.33698739 </i>
   </energy>
  </scstep>
  <scstep>
   <time name="diag">    0.26    0.26</time>
   <time name="diis">    0.80    0.80</time>
   <time name="orth">    0.03    0.03</time>
   <time name="total">    1.37    1.37</time>
   <energy>
    <i name="e_fr_energy">   -100.67668693 </i>
    <i name="e_wo_entrp">    -99.99730263 </i>
    <i name="e_0_energy">   -100.33699478 </i>
   </energy>
  </scstep>
  <scstep>
   <time name="diag">    0.26    0.26</time>
   <time name="diis">    0.58    0.58</time>
   <time name="orth">    0.03    0.03</time>
   <time name="total">    1.15    1.15</time>
   <energy>
    <i name="e_fr_energy">   -100.67668585 </i>
    <i name="e_wo_entrp">    -99.99728357 </i>
    <i name="e_0_energy">   -100.33698471 </i>
   </energy>
  </scstep>
  <scstep>
   <time name="diag">    0.26    0.27</time>
   <time name="diis">    0.53    0.53</time>
   <time name="orth">    0.03    0.03</time>
   <time name="total">    0.99    1.00</time>
   <energy>
    <i name="alphaZ">    334.47473255 </i>
    <i name="ewald">  82309.27397452 </i>
    <i name="hartreedc">-127883.71413408 </i>
    <i name="XCdc">   1278.85058190 </i>
    <i name="pawpsdc">  39763.34594118 </i>
    <i name="pawaedc"> -44133.13509824 </i>
    <i name="eentropy">     -0.67941573 </i>
    <i name="bandstr">  -2576.41418531 </i>
    <i name="atom">  50807.32091778 </i>
    <i name="e_fr_energy">   -100.67668542 </i>
    <i name="e_wo_entrp">    -99.99726970 </i>
    <i name="e_0_energy">   -100.33697756 </i>
   </energy>
  </scstep>
  <structure>
   <crystal>
    <varray name="basis" >
     <v>      18.00000000       0.00000000       0.00000000 </v>
     <v>       0.00000000      18.00000000       0.00000000 </v>
     <v>       0.00000000       0.00000000      18.00000000 </v>
    </varray>
    <i name="volume">   5832.00000000 </i>
    <varray name="rec_basis" >
     <v>       0.05555556       0.00000000       0.00000000 </v>
     <v>       0.00000000       0.05555556       0.00000000 </v>
     <v>       0.00000000       0.00000000       0.05555556 </v>
    </varray>
   </crystal>
   <varray name="positions" >
    <v>       0.72098691       0.57223511       0.50021729 </v>
    <v>       0.57223609       0.72098664       0.50021707 </v>
    <v>       0.27924126       0.57242185       0.50009176 </v>
    <v>       0.42735496       0.72069105       0.50033771 </v>
    <v>       0.27908639       0.42755663       0.49967463 </v>
    <v>       0.42755590       0.27908673       0.49967482 </v>
    <v>       0.72069070       0.42735428       0.50033796 </v>
    <v>       0.57242091       0.27924110       0.50009208 </v>
    <v>       0.66768503       0.49996149       0.61735292 </v>
    <v>       0.33181331       0.49953434       0.61694416 </v>
    <v>       0.49996207       0.66768521       0.61735295 </v>
    <v>       0.49953361       0.33181365       0.61694412 </v>
    <v>       0.64733464       0.64733413       0.60707590 </v>
    <v>       0.35305606       0.64661515       0.60794753 </v>
    <v>       0.35223841       0.35223909       0.60716006 </v>
    <v>       0.64661444       0.35305576       0.60794756 </v>
    <v>       0.66542911       0.49991634       0.38227779 </v>
    <v>       0.33452087       0.50024170       0.38192176 </v>
    <v>       0.49991704       0.66542913       0.38227746 </v>
    <v>       0.50024123       0.33452095       0.38192219 </v>
    <v>       0.64692807       0.64692744       0.39461010 </v>
    <v>       0.35278850       0.64734628       0.39437633 </v>
    <v>       0.35303339       0.35303382       0.39416264 </v>
    <v>       0.64734574       0.35278802       0.39437686 </v>
    <v>       0.57589839       0.57589814       0.70649825 </v>
    <v>       0.42520232       0.57443120       0.70665223 </v>
    <v>       0.42373167       0.42373202       0.70651323 </v>
    <v>       0.57443083       0.42520218       0.70665211 </v>
    <v>       0.57462456       0.57462394       0.29114706 </v>
    <v>       0.42539857       0.57487070       0.29100836 </v>
    <v>       0.42555212       0.42555198       0.29105126 </v>
    <v>       0.57487077       0.42539799       0.29100880 </v>
    <v>       0.49988392       0.49988396       0.60794307 </v>
    <v>       0.42261532       0.42261558       0.49953913 </v>
    <v>       0.42266375       0.57720272       0.49955598 </v>
    <v>       0.49999140       0.49999128       0.38998059 </v>
    <v>       0.57724979       0.57724944       0.49960467 </v>
    <v>       0.57720243       0.42266344       0.49955613 </v>
   </varray>
  </structure>
  <varray name="forces" >
   <v>      -0.46629297      -0.36914355       0.00989118 </v>
   <v>      -0.36917128      -0.46628852       0.00989502 </v>
   <v>       0.44456341      -0.36924524       0.00729988 </v>
   <v>       0.37448108      -0.44771915       0.01115244 </v>
   <v>       0.45306031       0.36942132       0.00509970 </v>
   <v>       0.36942619       0.45303958       0.00509638 </v>
   <v>      -0.44769732       0.37448552       0.01115275 </v>
   <v>      -0.36922276       0.44455323       0.00729746 </v>
   <v>      -0.58669471       0.00547579      -0.36884401 </v>
   <v>       0.59071714      -0.00701895      -0.36232259 </v>
   <v>       0.00547182      -0.58670249      -0.36885230 </v>
   <v>      -0.00701962       0.59070878      -0.36231274 </v>
   <v>      -0.45752746      -0.45751258      -0.19558508 </v>
   <v>       0.45950865      -0.45766303      -0.21342372 </v>
   <v>       0.47025914       0.47025135      -0.20825580 </v>
   <v>      -0.45763211       0.45949782      -0.21341394 </v>
   <v>      -0.53116786      -0.00330719       0.38869487 </v>
   <v>       0.53585984       0.00090948       0.38874506 </v>
   <v>      -0.00331211      -0.53117225       0.38870004 </v>
   <v>       0.00090793       0.53585371       0.38873721 </v>
   <v>      -0.44808772      -0.44807205       0.08382736 </v>
   <v>       0.46298892      -0.46666568       0.08920496 </v>
   <v>       0.45576577       0.45575587       0.08443656 </v>
   <v>      -0.46664335       0.46298852       0.08919010 </v>
   <v>      -0.13183585      -0.13183197      -0.63572476 </v>
   <v>       0.11406789      -0.12415833      -0.59828569 </v>
   <v>       0.13033395       0.13033966      -0.64542751 </v>
   <v>      -0.12415721       0.11406398      -0.59826564 </v>
   <v>      -0.08203992      -0.08203617       0.62275178 </v>
   <v>       0.07931372      -0.07811057       0.62852163 </v>
   <v>       0.08006805       0.08007364       0.61917288 </v>
   <v>      -0.07811477       0.07931619       0.62850570 </v>
   <v>      -0.00281782      -0.00279817       0.53969773 </v>
   <v>      -0.25207154      -0.25205803       0.03364599 </v>
   <v>      -0.25155180       0.25251305       0.02676222 </v>
   <v>       0.00229899       0.00230772      -0.35556463 </v>
   <v>       0.25146728       0.25147982       0.03203903 </v>
   <v>       0.25249804      -0.25153110       0.02676048 </v>
  </varray>
  <energy>
   <i name="e_fr_energy">   -100.67668542 </i>
   <i name="e_wo_entrp">   -100.33697756 </i>
   <i name="e_0_energy">     -0.67941573 </i>
  </energy>
  <time name="totalsc">   16.50   16.54</time>
 </calculation>
 <calculation>
  <scstep>
   <time name="dav">    1.57    1.57</time>
   <time name="total">    1.84    1.85</time>
   <energy>
    <i name="alphaZ">    334.47473255 </i>
    <i name="ewald">  84505.49930075 </i>
    <i name="hartreedc">-130065.06593180 </i>
    <i name="XCdc">   1281.86985469 </i>
    <i name="pawpsdc">  39763.34339746 </i>
    <i name="pawaedc"> -44133.13189928 </i>
    <i name="eentropy">     -0.71322681 </i>
    <i name="bandstr">  -2593.76183099 </i>
    <i name="atom">  50807.32091778 </i>
    <i name="e_fr_energy">   -100.16468565 </i>
    <i name="e_wo_entrp">    -99.45145884 </i>
    <i name="e_0_energy">    -99.80807224 </i>
   </energy>
  </scstep>
  <scstep>
   <time name="diag">    0.26    0.26</time>
   <time name="diis">    0.87    0.87</time>
   <time name="orth">    0.03    0.03</time>
   <time name="total">    1.44    1.45</time>
   <energy>
    <i name="e_fr_energy">   -100.85324951 </i>
    <i name="e_wo_entrp">   -100.15770528 </i>
    <i name="e_0_energy">   -100.50547739 </i>
   </energy>
  </scstep>
  <scstep>
   <time name="diag">    0.27    0.27</time>
   <time name="diis">    0.86    0.87</time>
   <time name="orth">    0.03    0.03</time>
   <time name="total">    1.44    1.45</time>
   <energy>
    <i name="e_fr_energy">   -100.84549402 </i>
    <i name="e_wo_entrp">   -100.14438640 </i>
    <i name="e_0_energy">   -100.49494021 </i>
   </energy>
  </scstep>
  <scstep>
   <time name="diag">    0.26    0.26</time>
   <time name="diis">    0.87    0.87</time>
   <time name="orth">    0.03    0.03</time>
   <time name="total">    1.44    1.44</time>
   <energy>
    <i name="e_fr_energy">   -100.83758207 </i>
    <i name="e_wo_entrp">   -100.13286874 </i>
    <i name="e_0_energy">   -100.48522540 </i>
   </energy>
  </scstep>
  <scstep>
   <time name="diag">    0.26    0.26</time>
   <time name="diis">    0.86    0.87</time>
   <time name="orth">    0.03    0.03</time>
   <time name="total">    1.44    1.44</time>
   <energy>
    <i name="e_fr_energy">   -100.83110071 </i>
    <i name="e_wo_entrp">   -100.12388645 </i>
    <i name="e_0_energy">   -100.47749358 </i>
   </energy>
  </scstep>
  <scstep>
   <time name="diag">    0.26    0.27</time>
   <time name="diis">    0.86    0.87</time>
   <time name="orth">    0.03    0.03</time>
   <time name="total">    1.44    1.44</time>
   <energy>
    <i name="e_fr_energy">   -100.82980928 </i>
    <i name="e_wo_entrp">   -100.12607756 </i>
    <i name="e_0_energy">   -100.47794342 </i>
   </energy>
  </scstep>
  <scstep>
   <time name="diag">    0.26    0.26</time>
   <time name="diis">    0.87    0.87</time>
   <time name="orth">    0.03    0.03</time>
   <time name="total">    1.44    1.44</time>
   <energy>
    <i name="e_fr_energy">   -100.82955583 </i>
    <i name="e_wo_entrp">   -100.12559823 </i>
    <i name="e_0_energy">   -100.47757703 </i>
   </energy>
  </scstep>
  <scstep>
   <time name="diag">    0.26    0.26</time>
   <time name="diis">    0.86    0.86</time>
   <time name="orth">    0.03    0.04</time>
   <time name="total">    1.43    1.44</time>
   <energy>
    <i name="e_fr_energy">   -100.82950299 </i>
    <i name="e_wo_entrp">   -100.12603646 </i>
    <i name="e_0_energy">   -100.47776973 </i>
   </energy>
  </scstep>
  <scstep>
   <time name="diag">    0.27    0.27</time>
   <time name="diis">    0.86    0.87</time>
   <time name="orth">    0.03    0.03</time>
   <time name="total">    1.44    1.44</time>
   <energy>
    <i name="e_fr_energy">   -100.82950075 </i>
    <i name="e_wo_entrp">   -100.12607224 </i>
    <i name="e_0_energy">   -100.47778649 </i>
   </energy>
  </scstep>
  <scstep>
   <time name="diag">    0.26    0.26</time>
   <time name="diis">    0.72    0.72</time>
   <time name="orth">    0.03    0.03</time>
   <time name="total">    1.29    1.29</time>
   <energy>
    <i name="e_fr_energy">   -100.82950222 </i>
    <i name="e_wo_entrp">   -100.12599794 </i>
    <i name="e_0_energy">   -100.47775008 </i>
   </energy>
  </scstep>
  <scstep>
   <time name="diag">    0.26    0.26</time>
   <time name="diis">    0.56    0.56</time>
   <time name="orth">    0.03    0.03</time>
   <time name="total">    1.02    1.02</time>
   <energy>
    <i name="alphaZ">    334.47473255 </i>
    <i name="ewald">  84505.49930075 </i>
    <i name="hartreedc">-130043.45198172 </i>
    <i name="XCdc">   1280.83756986 </i>
    <i name="pawpsdc">  39902.37492908 </i>
    <i name="pawaedc"> -44277.62080990 </i>
    <i name="eentropy">     -0.70353686 </i>
    <i name="bandstr">  -2609.56062449 </i>
    <i name="atom">  50807.32091778 </i>
    <i name="e_fr_energy">   -100.82950295 </i>
    <i name="e_wo_entrp">   -100.12596609 </i>
    <i name="e_0_energy">   -100.47773452 </i>
   </energy>
  </scstep>
  <structure>
   <crystal>
    <varray name="basis" >
     <v>      18.00000000       0.00000000       0.00000000 </v>
     <v>       0.00000000      18.00000000       0.00000000 </v>
     <v>       0.00000000       0.00000000      18.00000000 </v>
    </varray>
    <i name="volume">   5832.00000000 </i>
    <varray name="rec_basis" >
     <v>       0.05555556       0.00000000       0.00000000 </v>
     <v>       0.00000000       0.05555556       0.00000000 </v>
     <v>       0.00000000       0.00000000       0.05555556 </v>
    </varray>
   </crystal>
   <varray name="positions" >
    <v>       0.71860583       0.57093793       0.50023834 </v>
    <v>       0.57093885       0.71860557       0.50023812 </v>
    <v>       0.28157916       0.57112921       0.50009792 </v>
    <v>       0.42865238       0.71835344       0.50035559 </v>
    <v>       0.28143437       0.42884564       0.49967920 </v>
    <v>       0.42884491       0.28143466       0.49967939 </v>
    <v>       0.71835319       0.42865170       0.50035583 </v>
    <v>       0.57112832       0.28157895       0.50009823 </v>
    <v>       0.66575945       0.49997615       0.61610964 </v>
    <v>       0.33374361       0.49950343       0.61570415 </v>
    <v>       0.49997671       0.66575962       0.61610965 </v>
    <v>       0.49950269       0.33374394       0.61570413 </v>
    <v>       0.64544358       0.64544309       0.60605977 </v>
    <v>       0.35495390       0.64472031       0.60686097 </v>
    <v>       0.35415733       0.35415799       0.60611475 </v>
    <v>       0.64471969       0.35495357       0.60686103 </v>
    <v>       0.66352903       0.49990695       0.38356403 </v>
    <v>       0.33643216       0.50024783       0.38320715 </v>
    <v>       0.49990763       0.66352903       0.38356372 </v>
    <v>       0.50024736       0.33643219       0.38320755 </v>
    <v>       0.64498601       0.64498540       0.39539423 </v>
    <v>       0.35475369       0.64537810       0.39515208 </v>
    <v>       0.35498616       0.35498658       0.39492872 </v>
    <v>       0.64537763       0.35475319       0.39515258 </v>
    <v>       0.57516135       0.57516111       0.70384890 </v>
    <v>       0.42590953       0.57370560       0.70406763 </v>
    <v>       0.42447181       0.42447216       0.70383160 </v>
    <v>       0.57370523       0.42590940       0.70406755 </v>
    <v>       0.57404345       0.57404284       0.29383017 </v>
    <v>       0.42596886       0.57431231       0.29369337 </v>
    <v>       0.42613345       0.42613333       0.29371282 </v>
    <v>       0.57431239       0.42596828       0.29369374 </v>
    <v>       0.49987730       0.49987737       0.61585393 </v>
    <v>       0.41783270       0.41783299       0.49926680 </v>
    <v>       0.41787474       0.58199408       0.49929642 </v>
    <v>       0.49999489       0.49999484       0.38376166 </v>
    <v>       0.58203746       0.58203719       0.49934653 </v>
    <v>       0.58199368       0.41787448       0.49929659 </v>
   </varray>
  </structure>
  <varray name="forces" >
   <v>       0.10962763      -0.32633792       0.01228207 </v>
   <v>      -0.32636151       0.10963072       0.01228510 </v>
   <v>      -0.13641067      -0.32680949       0.00752174 </v>
   <v>       0.33001597       0.13041075       0.01279055 </v>
   <v>      -0.12775282       0.32503458       0.00522454 </v>
   <v>       0.32503922      -0.12775881       0.00522229 </v>
   <v>       0.13040773       0.33001971       0.01278927 </v>
   <v>      -0.32678849      -0.13641733       0.00752018 </v>
   <v>      -0.52165830       0.00518575      -0.31568645 </v>
   <v>       0.54100970      -0.00234028      -0.30478063 </v>
   <v>       0.00517605      -0.52167028      -0.31569330 </v>
   <v>      -0.00233562       0.54099168      -0.30477392 </v>
   <v>      -0.16209278      -0.16208576       0.11591331 </v>
   <v>       0.17683247      -0.18214823       0.10741097 </v>
   <v>       0.17594584       0.17593999       0.08999542 </v>
   <v>      -0.18213152       0.17681664       0.10741889 </v>
   <v>      -0.45340489      -0.00243283       0.34745224 </v>
   <v>       0.45645757      -0.00058815       0.35244801 </v>
   <v>      -0.00243475      -0.45340732       0.34746240 </v>
   <v>      -0.00058818       0.45645662       0.35243516 </v>
   <v>      -0.11361322      -0.11361274      -0.32750572 </v>
   <v>       0.12987262      -0.12902960      -0.31061931 </v>
   <v>       0.12489557       0.12489326      -0.32148928 </v>
   <v>      -0.12901848       0.12986960      -0.31063207 </v>
   <v>       0.13775360       0.13775841      -0.21445310 </v>
   <v>      -0.19211388       0.18348557      -0.14815027 </v>
   <v>      -0.13975222      -0.13974353      -0.22699059 </v>
   <v>       0.18349032      -0.19211961      -0.14812461 </v>
   <v>       0.16587679       0.16587737       0.22633170 </v>
   <v>      -0.16310925       0.16407125       0.23256151 </v>
   <v>      -0.17184343      -0.17183947       0.21437324 </v>
   <v>       0.16406075      -0.16310175       0.23257212 </v>
   <v>      -0.00735721      -0.00733403      -1.78062366 </v>
   <v>       1.24691944       1.24692543       0.16570962 </v>
   <v>       1.25388772      -1.24979108       0.14056834 </v>
   <v>       0.00401124       0.00401112       1.62336764 </v>
   <v>      -1.25272745      -1.25271943       0.15730364 </v>
   <v>      -1.24978556       1.25390919       0.14056296 </v>
  </varray>
  <energy>
   <i name="e_fr_energy">   -100.82950295 </i>
   <i name="e_wo_entrp">   -100.47773452 </i>
   <i name="e_0_energy">     -0.70353686 </i>
  </energy>
  <time name="totalsc">   16.75   16.80</time>
 </calculation>
 <calculation>
  <scstep>
   <time name="dav">    1.56    1.56</time>
   <time name="total">    1.83    1.84</time>
   <energy>
    <i name="alphaZ">    334.47473255 </i>
    <i name="ewald">  83534.62608408 </i>
    <i name="hartreedc">-129081.76072106 </i>
    <i name="XCdc">   1279.48953998 </i>
    <i name="pawpsdc">  39902.36371619 </i>
    <i name="pawaedc"> -44277.60768804 </i>
    <i name="eentropy">     -0.68729148 </i>
    <i name="bandstr">  -2599.15402553 </i>
    <i name="atom">  50807.32091778 </i>
    <i name="e_fr_energy">   -100.93473553 </i>
    <i name="e_wo_entrp">   -100.24744405 </i>
    <i name="e_0_energy">   -100.59108979 </i>
   </energy>
  </scstep>
  <scstep>
   <time name="diag">    0.26    0.26</time>
   <time name="diis">    0.88    0.88</time>
   <time name="orth">    0.03    0.04</time>
   <time name="total">    1.46    1.47</time>
   <energy>
    <i name="e_fr_energy">   -101.04077548 </i>
    <i name="e_wo_entrp">   -100.34824605 </i>
    <i name="e_0_energy">   -100.69451077 </i>
   </energy>
  </scstep>
  <scstep>
   <time name="diag">    0.27    0.27</time>
   <time name="diis">    0.90    0.90</time>
   <time name="orth">    0.03    0.03</time>
   <time name="total">    1.48    1.49</time>
   <energy>
    <i name="e_fr_energy">   -101.04259341 </i>
    <i name="e_wo_entrp">   -100.34874841 </i>
    <i name="e_0_energy">   -100.69567091 </i>
   </energy>
  </scstep>
  <scstep>
   <time name="diag">    0.26    0.26</time>
   <time name="diis">    0.86    0.86</time>
   <time name="orth">    0.03    0.03</time>
   <time name="total">    1.43    1.71</time>
   <energy>
    <i name="e_fr_energy">   -101.03990315 </i>
    <i name="e_wo_entrp">   -100.34832502 </i>
    <i name="e_0_energy">   -100.69411409 </i>
   </energy>
  </scstep>
  <scstep>
   <time name="diag">    0.26    0.26</time>
   <time name="diis">    0.86    0.87</time>
   <time name="orth">    0.03    0.03</time>
   <time name="total">    1.44    1.44</time>
   <energy>
    <i name="e_fr_energy">   -101.03804300 </i>
    <i name="e_wo_entrp">   -100.34701667 </i>
    <i name="e_0_energy">   -100.69252984 </i>
   </energy>
  </scstep>
  <scstep>
   <time name="diag">    0.26    0.26</time>
   <time name="diis">    0.86    0.86</time>
   <time name="orth">    0.03    0.03</time>
   <time name="total">    1.44    1.44</time>
   <energy>
    <i name="e_fr_energy">   -101.03785052 </i>
    <i name="e_wo_entrp">   -100.34566873 </i>
    <i name="e_0_energy">   -100.69175962 </i>
   </energy>
  </scstep>
  <scstep>
   <time name="diag">    0.26    0.26</time>
   <time name="diis">    0.86    0.86</time>
   <time name="orth">    0.03    0.03</time>
   <time name="total">    1.44    1.44</time>
   <energy>
    <i name="e_fr_energy">   -101.03773290 </i>
    <i name="e_wo_entrp">   -100.34523849 </i>
    <i name="e_0_energy">   -100.69148570 </i>
   </energy>
  </scstep>
  <scstep>
   <time name="diag">    0.26    0.26</time>
   <time name="diis">    0.86    0.86</time>
   <time name="orth">    0.03    0.03</time>
   <time name="total">    1.44    1.45</time>
   <energy>
    <i name="e_fr_energy">   -101.03770343 </i>
    <i name="e_wo_entrp">   -100.34508120 </i>
    <i name="e_0_energy">   -100.69139232 </i>
   </energy>
  </scstep>
  <scstep>
   <time name="diag">    0.26    0.27</time>
   <time name="diis">    0.65    0.65</time>
   <time name="orth">    0.03    0.03</time>
   <time name="total">    1.12    1.12</time>
   <energy>
    <i name="alphaZ">    334.47473255 </i>
    <i name="ewald">  83534.62608408 </i>
    <i name="hartreedc">-129090.09088817 </i>
    <i name="XCdc">   1279.87362686 </i>
    <i name="pawpsdc">  39832.71836824 </i>
    <i name="pawaedc"> -44205.18562309 </i>
    <i name="eentropy">     -0.69261738 </i>
    <i name="bandstr">  -2594.08230389 </i>
    <i name="atom">  50807.32091778 </i>
    <i name="e_fr_energy">   -101.03770303 </i>
    <i name="e_wo_entrp">   -100.34508564 </i>
    <i name="e_0_energy">   -100.69139434 </i>
   </energy>
  </scstep>
  <structure>
   <crystal>
    <varray name="basis" >
     <v>      18.00000000       0.00000000       0.00000000 </v>
     <v>       0.00000000      18.00000000       0.00000000 </v>
     <v>       0.00000000       0.00000000      18.00000000 </v>
    </varray>
    <i name="volume">   5832.00000000 </i>
    <varray name="rec_basis" >
     <v>       0.05555556       0.00000000       0.00000000 </v>
     <v>       0.00000000       0.05555556       0.00000000 </v>
     <v>       0.00000000       0.00000000       0.05555556 </v>
    </varray>
   </crystal>
   <varray name="positions" >
    <v>       0.71964386       0.57150344       0.50022916 </v>
    <v>       0.57150438       0.71964359       0.50022895 </v>
    <v>       0.28055996       0.57169273       0.50009524 </v>
    <v>       0.42808677       0.71937252       0.50034780 </v>
    <v>       0.28041077       0.42828370       0.49967721 </v>
    <v>       0.42828297       0.28041108       0.49967740 </v>
    <v>       0.71937222       0.42808609       0.50034804 </v>
    <v>       0.57169182       0.28055977       0.50009555 </v>
    <v>       0.66659890       0.49996976       0.61665165 </v>
    <v>       0.33290210       0.49951690       0.61624473 </v>
    <v>       0.49997033       0.66659907       0.61665166 </v>
    <v>       0.49951617       0.33290243       0.61624471 </v>
    <v>       0.64626799       0.64626749       0.60650275 </v>
    <v>       0.35412654       0.64554636       0.60733465 </v>
    <v>       0.35332078       0.35332145       0.60657045 </v>
    <v>       0.64554570       0.35412622       0.60733470 </v>
    <v>       0.66435737       0.49991104       0.38300330 </v>
    <v>       0.33559894       0.50024515       0.38264679 </v>
    <v>       0.49991173       0.66435738       0.38300298 </v>
    <v>       0.50024469       0.33559899       0.38264720 </v>
    <v>       0.64583265       0.64583203       0.39505239 </v>
    <v>       0.35389697       0.64623612       0.39481389 </v>
    <v>       0.35413486       0.35413528       0.39459475 </v>
    <v>       0.64623562       0.35389648       0.39481440 </v>
    <v>       0.57548266       0.57548242       0.70500388 </v>
    <v>       0.42560123       0.57402193       0.70519438 </v>
    <v>       0.42414915       0.42414949       0.70500065 </v>
    <v>       0.57402155       0.42560109       0.70519429 </v>
    <v>       0.57429678       0.57429617       0.29266047 </v>
    <v>       0.42572024       0.57455574       0.29252284 </v>
    <v>       0.42588002       0.42587989       0.29255252 </v>
    <v>       0.57455581       0.42571966       0.29252325 </v>
    <v>       0.49988019       0.49988025       0.61240520 </v>
    <v>       0.41991767       0.41991795       0.49938552 </v>
    <v>       0.41996250       0.57990529       0.49940958 </v>
    <v>       0.49999337       0.49999329       0.38647279 </v>
    <v>       0.57995028       0.57994998       0.49945906 </v>
    <v>       0.57990494       0.41996222       0.49940974 </v>
   </varray>
  </structure>
  <varray name="forces" >
   <v>      -0.17061047      -0.34084592       0.01444935 </v>
   <v>      -0.34088915      -0.17059377       0.01444834 </v>
   <v>       0.14869245      -0.34151155       0.01027364 </v>
   <v>       0.34645752      -0.15335567       0.01328201 </v>
   <v>       0.15514406       0.34093900       0.00717412 </v>
   <v>       0.34092566       0.15515135       0.00717668 </v>
   <v>      -0.15336547       0.34647517       0.01328450 </v>
   <v>      -0.34150570       0.14870000       0.01027653 </v>
   <v>      -0.55914561       0.00530051      -0.34141491 </v>
   <v>       0.56792204      -0.00418188      -0.32952236 </v>
   <v>       0.00528059      -0.55913424      -0.34141958 </v>
   <v>      -0.00419487       0.56793124      -0.32951669 </v>
   <v>      -0.30298218      -0.30295562      -0.04245872 </v>
   <v>       0.30732558      -0.30779707      -0.05084148 </v>
   <v>       0.31792521       0.31792745      -0.06122910 </v>
   <v>      -0.30779690       0.30733944      -0.05083245 </v>
   <v>      -0.48189543      -0.00366286       0.37368293 </v>
   <v>       0.48498476       0.00076743       0.37616560 </v>
   <v>      -0.00368266      -0.48188608       0.37369029 </v>
   <v>       0.00074874       0.48499295       0.37615602 </v>
   <v>      -0.27271430      -0.27268615      -0.11688729 </v>
   <v>       0.28985539      -0.29232445      -0.10773742 </v>
   <v>       0.28031896       0.28033072      -0.11511680 </v>
   <v>      -0.29207349       0.28947771      -0.10750301 </v>
   <v>      -0.00265548      -0.00263770      -0.43320239 </v>
   <v>      -0.03066020       0.02367979      -0.38097568 </v>
   <v>       0.00051105       0.00053177      -0.44582064 </v>
   <v>       0.02366573      -0.03064716      -0.38096565 </v>
   <v>       0.03905442       0.03907765       0.40719876 </v>
   <v>      -0.03959952       0.04096301       0.41372825 </v>
   <v>      -0.04273866      -0.04271278       0.39822153 </v>
   <v>       0.04094144      -0.03957914       0.41371365 </v>
   <v>      -0.00488811      -0.00485840      -0.78933237 </v>
   <v>       0.61190658       0.61193260       0.11232223 </v>
   <v>       0.61663400      -0.61419340       0.09534526 </v>
   <v>       0.00313287       0.00316368       0.79295507 </v>
   <v>      -0.61581437      -0.61578892       0.10587863 </v>
   <v>      -0.61421448       0.61667131       0.09535318 </v>
  </varray>
  <energy>
   <i name="e_fr_energy">   -101.03770303 </i>
   <i name="e_wo_entrp">   -100.69139434 </i>
   <i name="e_0_energy">     -0.69261738 </i>
  </energy>
  <time name="totalsc">   14.18   14.52</time>
 </calculation>
 <calculation>
  <scstep>
   <time name="dav">    1.56    1.57</time>
   <time name="total">    1.84    1.85</time>
   <energy>
    <i name="alphaZ">    334.47473255 </i>
    <i name="ewald">  84309.25737967 </i>
    <i name="hartreedc">-129862.21562327 </i>
    <i name="XCdc">   1280.52311024 </i>
    <i name="pawpsdc">  39832.66987548 </i>
    <i name="pawaedc"> -44205.13480583 </i>
    <i name="eentropy">     -0.67276574 </i>
    <i name="bandstr">  -2597.50029677 </i>
    <i name="atom">  50807.32091778 </i>
    <i name="e_fr_energy">   -101.27747589 </i>
    <i name="e_wo_entrp">   -100.60471015 </i>
    <i name="e_0_energy">   -100.94109302 </i>
   </energy>
  </scstep>
  <scstep>
   <time name="diag">    0.27    0.27</time>
   <time name="diis">    0.86    0.87</time>
   <time name="orth">    0.03    0.03</time>
   <time name="total">    1.45    1.45</time>
   <energy>
    <i name="e_fr_energy">   -101.28316252 </i>
    <i name="e_wo_entrp">   -100.60428914 </i>
    <i name="e_0_energy">   -100.94372583 </i>
   </energy>
  </scstep>
  <scstep>
   <time name="diag">    0.27    0.27</time>
   <time name="diis">    0.87    0.87</time>
   <time name="orth">    0.03    0.03</time>
   <time name="total">    1.45    1.46</time>
   <energy>
    <i name="e_fr_energy">   -101.28178202 </i>
    <i name="e_wo_entrp">   -100.60472455 </i>
    <i name="e_0_energy">   -100.94325329 </i>
   </energy>
  </scstep>
  <scstep>
   <time name="diag">    0.26    0.26</time>
   <time name="diis">    0.87    0.87</time>
   <time name="orth">    0.03    0.03</time>
   <time name="total">    1.45    1.45</time>
   <energy>
    <i name="e_fr_energy">   -101.28105421 </i>
    <i name="e_wo_entrp">   -100.60314071 </i>
    <i name="e_0_energy">   -100.94209746 </i>
   </energy>
  </scstep>
  <scstep>
   <time name="diag">    0.26    0.26</time>
   <time name="diis">    0.86    0.87</time>
   <time name="orth">    0.04    0.04</time>
   <time name="total">    1.44    1.59</time>
   <energy>
    <i name="e_fr_energy">   -101.28105702 </i>
    <i name="e_wo_entrp">   -100.60241262 </i>
    <i name="e_0_energy">   -100.94173482 </i>
   </energy>
  </scstep>
  <scstep>
   <time name="diag">    0.26    0.26</time>
   <time name="diis">    0.87    0.87</time>
   <time name="orth">    0.03    0.03</time>
   <time name="total">    1.44    1.45</time>
   <energy>
    <i name="e_fr_energy">   -101.28102592 </i>
    <i name="e_wo_entrp">   -100.60236865 </i>
    <i name="e_0_energy">   -100.94169729 </i>
   </energy>
  </scstep>
  <scstep>
   <time name="diag">    0.26    0.26</time>
   <time name="diis">    0.85    0.85</time>
   <time name="orth">    0.03    0.03</time>
   <time name="total">    1.43    1.43</time>
   <energy>
    <i name="e_fr_energy">   -101.28103017 </i>
    <i name="e_wo_entrp">   -100.60240951 </i>
    <i name="e_0_energy">   -100.94171984 </i>
   </energy>
  </scstep>
  <scstep>
   <time name="diag">    0.26    0.27</time>
   <time name="diis">    0.55    0.56</time>
   <time name="orth">    0.03    0.03</time>
   <time name="total">    1.13    1.16</time>
   <energy>
    <i name="e_fr_energy">   -101.28103210 </i>
    <i name="e_wo_entrp">   -100.60243233 </i>
    <i name="e_0_energy">   -100.94173221 </i>
   </energy>
  </scstep>
  <scstep>
   <time name="diag">    0.26    0.26</time>
   <time name="diis">    0.55    0.55</time>
   <time name="orth">    0.03    0.03</time>
   <time name="total">    1.13    1.20</time>
   <energy>
    <i name="e_fr_energy">   -101.28103449 </i>
    <i name="e_wo_entrp">   -100.60245508 </i>
    <i name="e_0_energy">   -100.94174479 </i>
   </energy>
  </scstep>
  <scstep>
   <time name="diag">    0.26    0.26</time>
   <time name="diis">    0.54    0.54</time>
   <time name="orth">    0.03    0.03</time>
   <time name="total">    1.12    1.12</time>
   <energy>
    <i name="e_fr_energy">   -101.28103578 </i>
    <i name="e_wo_entrp">   -100.60247401 </i>
    <i name="e_0_energy">   -100.94175490 </i>
   </energy>
  </scstep>
  <scstep>
   <time name="diag">    0.26    0.26</time>
   <time name="diis">    0.53    0.53</time>
   <time name="orth">    0.03    0.03</time>
   <time name="total">    1.00    1.01</time>
   <energy>
    <i name="alphaZ">    334.47473255 </i>
    <i name="ewald">  84309.25737967 </i>
    <i name="hartreedc">-129855.61632809 </i>
    <i name="XCdc">   1280.29326727 </i>
    <i name="pawpsdc">  39855.06218187 </i>
    <i name="pawaedc"> -44228.39010894 </i>
    <i name="eentropy">     -0.67856473 </i>
    <i name="bandstr">  -2603.00451399 </i>
    <i name="atom">  50807.32091778 </i>
    <i name="e_fr_energy">   -101.28103662 </i>
    <i name="e_wo_entrp">   -100.60247189 </i>
    <i name="e_0_energy">   -100.94175425 </i>
   </energy>
  </scstep>
  <structure>
   <crystal>
    <varray name="basis" >
     <v>      18.00000000       0.00000000       0.00000000 </v>
     <v>       0.00000000      18.00000000       0.00000000 </v>
     <v>       0.00000000       0.00000000      18.00000000 </v>
    </varray>
    <i name="volume">   5832.00000000 </i>
    <varray name="rec_basis" >
     <v>       0.05555556       0.00000000       0.00000000 </v>
     <v>       0.00000000       0.05555556       0.00000000 </v>
     <v>       0.00000000       0.00000000       0.05555556 </v>
    </varray>
   </crystal>
   <varray name="positions" >
    <v>       0.71923082       0.57097587       0.50024861 </v>
    <v>       0.57097675       0.71923058       0.50024839 </v>
    <v>       0.28094253       0.57116474       0.50010830 </v>
    <v>       0.42862121       0.71898428       0.50036554 </v>
    <v>       0.28080209       0.42881068       0.49968636 </v>
    <v>       0.42880993       0.28080240       0.49968655 </v>
    <v>       0.71898398       0.42862055       0.50036579 </v>
[...]
       <r>   -4.6338    1.0000 </r>
       <r>   -4.6328    1.0000 </r>
       <r>   -4.3643    1.0000 </r>
       <r>   -3.3880    0.6320 </r>
       <r>   -3.3755    0.5984 </r>
       <r>   -3.3755    0.5983 </r>
       <r>   -3.1003    0.0449 </r>
       <r>   -3.0980    0.0433 </r>
       <r>   -3.0663    0.0264 </r>
       <r>   -3.0659    0.0262 </r>
       <r>   -3.0393    0.0167 </r>
       <r>   -2.9645    0.0039 </r>
       <r>   -2.9642    0.0039 </r>
       <r>   -2.9628    0.0038 </r>
       <r>   -2.9385    0.0022 </r>
       <r>   -2.0360    0.0000 </r>
       <r>   -2.0355    0.0000 </r>
       <r>   -2.0294    0.0000 </r>
       <r>   -1.8640    0.0000 </r>
       <r>   -1.7268    0.0000 </r>
       <r>   -1.6900    0.0000 </r>
       <r>   -1.3520    0.0000 </r>
       <r>   -1.2964    0.0000 </r>
       <r>   -1.2961    0.0000 </r>
       <r>   -1.2815    0.0000 </r>
       <r>   -1.2720    0.0000 </r>
       <r>   -1.1728    0.0000 </r>
       <r>   -1.1627    0.0000 </r>
       <r>   -1.1621    0.0000 </r>
       <r>   -0.5404    0.0000 </r>
       <r>   -0.5394    0.0000 </r>
       <r>   -0.5186    0.0000 </r>
       <r>   -0.2867    0.0000 </r>
       <r>   -0.2861    0.0000 </r>
       <r>   -0.2847    0.0000 </r>
       <r>   -0.1763    0.0000 </r>
       <r>   -0.1668    0.0000 </r>
       <r>   -0.1659    0.0000 </r>
       <r>    0.6160    0.0000 </r>
       <r>    0.6163    0.0000 </r>
       <r>    0.6211    0.0000 </r>
       <r>    0.6506    0.0000 </r>
       <r>    0.6531    0.0000 </r>
       <r>    0.7587    0.0000 </r>
       <r>    0.8090    0.0000 </r>
       <r>    0.8102    0.0000 </r>
      </set>
     </set>
    </set>
   </array>
  </eigenvalues>
  <separator name="orbital magnetization" >
   <v name="MAGDIPOLOUT">      0.00000000      0.00000000      0.00000000</v>
  </separator>
  <dos>
   <i name="efermi">     -3.34027860 </i>
   <total>
    <array>
     <dimension dim="1">gridpoints</dimension>
     <dimension dim="2">spin</dimension>
     <field>energy</field>
     <field>total</field>
     <field>integrated</field>
     <set>
      <set comment="spin 1">
       <r>   -13.1110     0.0000     0.0000 </r>
       <r>   -13.0579     0.0000     0.0000 </r>
       <r>   -13.0048     0.0000     0.0000 </r>
       <r>   -12.9517     0.0000     0.0000 </r>
       <r>   -12.8987     0.0000     0.0000 </r>
       <r>   -12.8456     0.0000     0.0000 </r>
       <r>   -12.7925     0.0000     0.0000 </r>
       <r>   -12.7395     0.0000     0.0000 </r>
       <r>   -12.6864     0.0000     0.0000 </r>
       <r>   -12.6333     0.0000     0.0000 </r>
       <r>   -12.5803     0.0000     0.0000 </r>
       <r>   -12.5272     0.0000     0.0000 </r>
       <r>   -12.4741     0.0000     0.0000 </r>
       <r>   -12.4210     0.0000     0.0000 </r>
       <r>   -12.3680     0.0000     0.0000 </r>
       <r>   -12.3149     0.0000     0.0000 </r>
       <r>   -12.2618     0.0000     0.0000 </r>
       <r>   -12.2088     0.0000     0.0000 </r>
       <r>   -12.1557     0.0000     0.0000 </r>
       <r>   -12.1026     0.0000     0.0000 </r>
       <r>   -12.0496     0.0000     0.0000 </r>
       <r>   -11.9965     0.0000     0.0000 </r>
       <r>   -11.9434     0.0000     0.0000 </r>
       <r>   -11.8903     0.0000     0.0000 </r>
       <r>   -11.8373     0.0000     0.0000 </r>
       <r>   -11.7842     0.0000     0.0000 </r>
       <r>   -11.7311     0.0002     0.0000 </r>
       <r>   -11.6781     0.0009     0.0001 </r>
       <r>   -11.6250     0.0041     0.0003 </r>
       <r>   -11.5719     0.0158     0.0011 </r>
       <r>   -11.5188     0.0529     0.0039 </r>
       <r>   -11.4658     0.1542     0.0121 </r>
       <r>   -11.4127     0.3912     0.0329 </r>
       <r>   -11.3596     0.8632     0.0787 </r>
       <r>   -11.3066     1.6572     0.1666 </r>
       <r>   -11.2535     2.7679     0.3135 </r>
       <r>   -11.2004     4.0225     0.5270 </r>
       <r>   -11.1474     5.0862     0.7969 </r>
       <r>   -11.0943     5.5955     1.0939 </r>
       <r>   -11.0412     5.3560     1.3781 </r>
       <r>   -10.9881     4.4607     1.6149 </r>
       <r>   -10.9351     3.2323     1.7864 </r>
       <r>   -10.8820     2.0378     1.8946 </r>
       <r>   -10.8289     1.1178     1.9539 </r>
       <r>   -10.7759     0.5335     1.9822 </r>
       <r>   -10.7228     0.2217     1.9940 </r>
       <r>   -10.6697     0.0812     1.9983 </r>
       <r>   -10.6166     0.0305     1.9999 </r>
       <r>   -10.5636     0.0281     2.0014 </r>
       <r>   -10.5105     0.0759     2.0054 </r>
       <r>   -10.4574     0.2296     2.0176 </r>
       <r>   -10.4044     0.6244     2.0507 </r>
       <r>   -10.3513     1.5040     2.1305 </r>
       <r>   -10.2982     3.2111     2.3010 </r>
       <r>   -10.2452     6.0909     2.6242 </r>
       <r>   -10.1921    10.2942     3.1705 </r>
       <r>   -10.1390    15.5661     3.9966 </r>
       <r>   -10.0859    21.1952     5.1215 </r>
       <r>   -10.0329    26.2603     6.5151 </r>
       <r>    -9.9798    30.0927     8.1121 </r>
       <r>    -9.9267    32.6345     9.8441 </r>
       <r>    -9.8737    34.3858    11.6689 </r>
       <r>    -9.8206    35.9599    13.5774 </r>
       <r>    -9.7675    37.5927    15.5724 </r>
       <r>    -9.7144    38.9561    17.6398 </r>
       <r>    -9.6614    39.3338    19.7273 </r>
       <r>    -9.6083    37.9935    21.7436 </r>
       <r>    -9.5552    34.5917    23.5794 </r>
       <r>    -9.5022    29.5008    25.1451 </r>
       <r>    -9.4491    23.9036    26.4136 </r>
       <r>    -9.3960    19.5004    27.4485 </r>
       <r>    -9.3430    17.8461    28.3956 </r>
       <r>    -9.2899    19.5857    29.4351 </r>
       <r>    -9.2368    23.9826    30.7078 </r>
       <r>    -9.1837    29.0635    32.2502 </r>
       <r>    -9.1307    32.4427    33.9720 </r>
       <r>    -9.0776    32.4952    35.6965 </r>
       <r>    -9.0245    29.2357    37.2481 </r>
       <r>    -8.9715    24.3619    38.5410 </r>
       <r>    -8.9184    20.4312    39.6253 </r>
       <r>    -8.8653    19.6483    40.6680 </r>
       <r>    -8.8122    22.8798    41.8823 </r>
       <r>    -8.7592    29.3157    43.4381 </r>
       <r>    -8.7061    36.9240    45.3976 </r>
       <r>    -8.6530    43.4993    47.7062 </r>
       <r>    -8.6000    47.7010    50.2377 </r>
       <r>    -8.5469    49.3756    52.8581 </r>
       <r>    -8.4938    48.9892    55.4580 </r>
       <r>    -8.4408    46.8009    57.9417 </r>
       <r>    -8.3877    42.6151    60.2033 </r>
       <r>    -8.3346    36.2906    62.1293 </r>
       <r>    -8.2815    28.3856    63.6357 </r>
       <r>    -8.2285    20.2514    64.7105 </r>
       <r>    -8.1754    13.5191    65.4279 </r>
       <r>    -8.1223     9.4701    65.9305 </r>
       <r>    -8.0693     8.7189    66.3932 </r>
       <r>    -8.0162    11.1972    66.9875 </r>
       <r>    -7.9631    16.2037    67.8474 </r>
       <r>    -7.9101    22.4536    69.0390 </r>
       <r>    -7.8570    28.2903    70.5404 </r>
       <r>    -7.8039    32.1483    72.2465 </r>
       <r>    -7.7508    33.0712    74.0016 </r>
       <r>    -7.6978    30.9733    75.6454 </r>
       <r>    -7.6447    26.5337    77.0536 </r>
       <r>    -7.5916    20.8813    78.1618 </r>
       <r>    -7.5386    15.2761    78.9725 </r>
       <r>    -7.4855    10.8782    79.5498 </r>
       <r>    -7.4324     8.5976    80.0061 </r>
       <r>    -7.3793     8.9992    80.4836 </r>
       <r>    -7.3263    12.2577    81.1342 </r>
       <r>    -7.2732    18.1850    82.0993 </r>
       <r>    -7.2201    26.3762    83.4991 </r>
       <r>    -7.1671    36.4131    85.4315 </r>
       <r>    -7.1140    47.9083    87.9740 </r>
       <r>    -7.0609    60.2455    91.1713 </r>
       <r>    -7.0079    72.2800    95.0072 </r>
       <r>    -6.9548    82.5252    99.3869 </r>
       <r>    -6.9017    89.9211   104.1590 </r>
       <r>    -6.8486    94.5235   109.1755 </r>
       <r>    -6.7956    97.3715   114.3430 </r>
       <r>    -6.7425    99.6435   119.6311 </r>
       <r>    -6.6894   101.9375   125.0410 </r>
       <r>    -6.6364   104.2177   130.5719 </r>
       <r>    -6.5833   106.1554   136.2056 </r>
       <r>    -6.5302   107.3935   141.9051 </r>
       <r>    -6.4771   107.7423   147.6230 </r>
       <r>    -6.4241   107.5514   153.3308 </r>
       <r>    -6.3710   108.0719   159.0662 </r>
       <r>    -6.3179   111.2574   164.9707 </r>
       <r>    -6.2649   118.8066   171.2759 </r>
       <r>    -6.2118   130.9548   178.2257 </r>
       <r>    -6.1587   145.8261   185.9648 </r>
       <r>    -6.1057   159.8659   194.4489 </r>
       <r>    -6.0526   169.2484   203.4310 </r>
       <r>    -5.9995   171.5146   212.5334 </r>
       <r>    -5.9464   166.5082   221.3701 </r>
       <r>    -5.8934   156.2479   229.6622 </r>
       <r>    -5.8403   144.1961   237.3148 </r>
       <r>    -5.7872   134.5110   244.4534 </r>
       <r>    -5.7342   131.2725   251.4201 </r>
       <r>    -5.6811   137.4063   258.7123 </r>
       <r>    -5.6280   153.5861   266.8632 </r>
       <r>    -5.5749   177.9235   276.3057 </r>
       <r>    -5.5219   206.7498   287.2780 </r>
       <r>    -5.4688   235.7148   299.7875 </r>
       <r>    -5.4157   260.2128   313.5971 </r>
       <r>    -5.3627   275.2768   328.2062 </r>
       <r>    -5.3096   276.1226   342.8602 </r>
       <r>    -5.2565   259.9509   356.6559 </r>
       <r>    -5.2035   227.9012   368.7507 </r>
       <r>    -5.1504   185.3324   378.5864 </r>
       <r>    -5.0973   139.8824   386.0100 </r>
       <r>    -5.0442    98.6159   391.2436 </r>
       <r>    -4.9912    66.0560   394.7493 </r>
       <r>    -4.9381    43.8269   397.0752 </r>
       <r>    -4.8850    31.3881   398.7410 </r>
       <r>    -4.8320    26.9489   400.1712 </r>
       <r>    -4.7789    28.0282   401.6586 </r>
       <r>    -4.7258    31.7134   403.3417 </r>
       <r>    -4.6727    35.0349   405.2010 </r>
       <r>    -4.6197    35.7053   407.0959 </r>
       <r>    -4.5666    32.9083   408.8424 </r>
       <r>    -4.5135    27.4714   410.3003 </r>
       <r>    -4.4605    21.1442   411.4224 </r>
       <r>    -4.4074    15.4816   412.2440 </r>
       <r>    -4.3543    11.1514   412.8358 </r>
       <r>    -4.3013     8.0141   413.2611 </r>
       <r>    -4.2482     5.6461   413.5608 </r>
       <r>    -4.1951     3.7610   413.7604 </r>
       <r>    -4.1420     2.2898   413.8819 </r>
       <r>    -4.0890     1.2453   413.9480 </r>
       <r>    -4.0359     0.5973   413.9797 </r>
       <r>    -3.9828     0.2517   413.9931 </r>
       <r>    -3.9298     0.0965   413.9982 </r>
       <r>    -3.8767     0.0488   414.0008 </r>
       <r>    -3.8236     0.0796   414.0050 </r>
       <r>    -3.7706     0.2305   414.0172 </r>
       <r>    -3.7175     0.6368   414.0510 </r>
       <r>    -3.6644     1.5429   414.1329 </r>
       <r>    -3.6113     3.2589   414.3059 </r>
       <r>    -3.5583     6.0058   414.6246 </r>
       <r>    -3.5052     9.6866   415.1387 </r>
       <r>    -3.4521    13.7636   415.8691 </r>
       <r>    -3.3991    17.4695   416.7962 </r>
       <r>    -3.3460    20.3507   417.8762 </r>
       <r>    -3.2929    22.7570   419.0840 </r>
       <r>    -3.2398    25.7548   420.4508 </r>
       <r>    -3.1868    30.3338   422.0606 </r>
       <r>    -3.1337    36.4318   423.9941 </r>
       <r>    -3.0806    42.5660   426.2531 </r>
       <r>    -3.0276    46.4468   428.7180 </r>
       <r>    -2.9745    46.1974   431.1698 </r>
       <r>    -2.9214    41.3720   433.3654 </r>
       <r>    -2.8684    33.1496   435.1247 </r>
       <r>    -2.8153    23.6714   436.3809 </r>
       <r>    -2.7622    15.0165   437.1779 </r>
       <r>    -2.7091     8.4379   437.6257 </r>
       <r>    -2.6561     4.1884   437.8479 </r>
       <r>    -2.6030     1.8339   437.9453 </r>
       <r>    -2.5499     0.7155   437.9832 </r>
       <r>    -2.4969     0.2825   437.9982 </r>
       <r>    -2.4438     0.2223   438.0100 </r>
       <r>    -2.3907     0.4651   438.0347 </r>
       <r>    -2.3376     1.1484   438.0957 </r>
       <r>    -2.2846     2.5552   438.2313 </r>
       <r>    -2.2315     4.9791   438.4955 </r>
       <r>    -2.1784     8.4933   438.9462 </r>
       <r>    -2.1254    12.7266   439.6217 </r>
       <r>    -2.0723    16.8564   440.5162 </r>
       <r>    -2.0192    19.9412   441.5745 </r>
       <r>    -1.9662    21.4264   442.7116 </r>
       <r>    -1.9131    21.4294   443.8489 </r>
       <r>    -1.8600    20.5513   444.9396 </r>
       <r>    -1.8069    19.3758   445.9679 </r>
       <r>    -1.7539    18.0974   446.9283 </r>
       <r>    -1.7008    16.5900   447.8087 </r>
       <r>    -1.6477    14.8262   448.5956 </r>
       <r>    -1.5947    13.2686   449.2997 </r>
       <r>    -1.5416    12.8849   449.9835 </r>
       <r>    -1.4885    14.7184   450.7647 </r>
       <r>    -1.4354    19.2411   451.7858 </r>
       <r>    -1.3824    25.8665   453.1586 </r>
       <r>    -1.3293    32.9426   454.9068 </r>
       <r>    -1.2762    38.3098   456.9399 </r>
       <r>    -1.2232    40.1815   459.0724 </r>
       <r>    -1.1701    37.8855   461.0830 </r>
       <r>    -1.1170    32.0783   462.7854 </r>
       <r>    -1.0640    24.3647   464.0785 </r>
       <r>    -1.0109    16.5810   464.9584 </r>
       <r>    -0.9578    10.1407   465.4966 </r>
       <r>    -0.9047     5.7400   465.8012 </r>
       <r>    -0.8517     3.4712   465.9854 </r>
       <r>    -0.7986     3.1491   466.1526 </r>
       <r>    -0.7455     4.5599   466.3946 </r>
       <r>    -0.6925     7.4607   466.7905 </r>
       <r>    -0.6394    11.4069   467.3959 </r>
       <r>    -0.5863    15.6781   468.2279 </r>
       <r>    -0.5332    19.5171   469.2637 </r>
       <r>    -0.4802    22.5662   470.4613 </r>
       <r>    -0.4271    25.0778   471.7922 </r>
       <r>    -0.3740    27.5857   473.2562 </r>
       <r>    -0.3210    30.2394   474.8610 </r>
       <r>    -0.2679    32.4014   476.5806 </r>
       <r>    -0.2148    32.9185   478.3276 </r>
       <r>    -0.1618    30.8831   479.9665 </r>
       <r>    -0.1087    26.2832   481.3614 </r>
       <r>    -0.0556    20.0709   482.4266 </r>
       <r>    -0.0025    13.6584   483.1514 </r>
       <r>     0.0505     8.2452   483.5890 </r>
       <r>     0.1036     4.4095   483.8230 </r>
       <r>     0.1567     2.1244   483.9358 </r>
       <r>     0.2097     1.0610   483.9921 </r>
       <r>     0.2628     0.9366   484.0418 </r>
       <r>     0.3159     1.7429   484.1343 </r>
       <r>     0.3690     3.7929   484.3356 </r>
       <r>     0.4220     7.5583   484.7367 </r>
       <r>     0.4751    13.3029   485.4427 </r>
       <r>     0.5282    20.6512   486.5386 </r>
       <r>     0.5812    28.3917   488.0454 </r>
       <r>     0.6343    34.7696   489.8907 </r>
       <r>     0.6874    38.1876   491.9173 </r>
       <r>     0.7404    37.8759   493.9274 </r>
       <r>     0.7935    34.1193   495.7381 </r>
       <r>     0.8466    27.9994   497.2241 </r>
       <r>     0.8997    20.9199   498.3343 </r>
       <r>     0.9527    14.1742   499.0865 </r>
       <r>     1.0058     8.6548   499.5458 </r>
       <r>     1.0589     4.7292   499.7968 </r>
       <r>     1.1119     2.2974   499.9187 </r>
       <r>     1.1650     0.9867   499.9711 </r>
       <r>     1.2181     0.3731   499.9909 </r>
       <r>     1.2711     0.1238   499.9975 </r>
       <r>     1.3242     0.0360   499.9994 </r>
       <r>     1.3773     0.0091   499.9999 </r>
       <r>     1.4304     0.0020   500.0000 </r>
       <r>     1.4834     0.0004   500.0000 </r>
       <r>     1.5365     0.0001   500.0000 </r>
       <r>     1.5896     0.0000   500.0000 </r>
       <r>     1.6426     0.0000   500.0000 </r>
       <r>     1.6957     0.0000   500.0000 </r>
       <r>     1.7488     0.0000   500.0000 </r>
       <r>     1.8019     0.0000   500.0000 </r>
       <r>     1.8549     0.0000   500.0000 </r>
       <r>     1.9080     0.0000   500.0000 </r>
       <r>     1.9611     0.0000   500.0000 </r>
       <r>     2.0141     0.0000   500.0000 </r>
       <r>     2.0672     0.0000   500.0000 </r>
       <r>     2.1203     0.0000   500.0000 </r>
       <r>     2.1733     0.0000   500.0000 </r>
       <r>     2.2264     0.0000   500.0000 </r>
       <r>     2.2795     0.0000   500.0000 </r>
       <r>     2.3326     0.0000   500.0000 </r>
       <r>     2.3856     0.0000   500.0000 </r>
       <r>     2.4387     0.0000   500.0000 </r>
       <r>     2.4918     0.0000   500.0000 </r>
       <r>     2.5448     0.0000   500.0000 </r>
       <r>     2.5979     0.0000   500.0000 </r>
       <r>     2.6510     0.0000   500.0000 </r>
       <r>     2.7041     0.0000   500.0000 </r>
       <r>     2.7571     0.0000   500.0000 </r>
       <r>     2.8102     0.0000   500.0000 </r>
      </set>
     </set>
    </array>
   </total>
  </dos>
 </calculation>
 <structure name="finalpos" >
  <crystal>
   <varray name="basis" >
    <v>      18.00000000       0.00000000       0.00000000 </v>
    <v>       0.00000000      18.00000000       0.00000000 </v>
    <v>       0.00000000       0.00000000      18.00000000 </v>
   </varray>
   <i name="volume">   5832.00000000 </i>
   <varray name="rec_basis" >
    <v>       0.05555556       0.00000000       0.00000000 </v>
    <v>       0.00000000       0.05555556       0.00000000 </v>
    <v>       0.00000000       0.00000000       0.05555556 </v>
   </varray>
  </crystal>
  <varray name="positions" >
   <v>       0.71577312       0.56760129       0.50000745 </v>
   <v>       0.56760226       0.71577201       0.50000722 </v>
   <v>       0.28420346       0.56799635       0.49951710 </v>
   <v>       0.43163734       0.71578559       0.50013529 </v>
   <v>       0.28413951       0.43201630       0.49873447 </v>
   <v>       0.43201536       0.28413920       0.49873648 </v>
   <v>       0.71578580       0.43163673       0.50013742 </v>
   <v>       0.56799589       0.28420250       0.49952201 </v>
   <v>       0.65336400       0.49986660       0.60936237 </v>
   <v>       0.34626314       0.49955792       0.60880373 </v>
   <v>       0.49985497       0.65336414       0.60935955 </v>
   <v>       0.49955490       0.34626240       0.60880804 </v>
   <v>       0.64146310       0.64146399       0.60544778 </v>
   <v>       0.35849831       0.64111396       0.60562055 </v>
   <v>       0.35799872       0.35800780       0.60426044 </v>
   <v>       0.64111355       0.35849904       0.60562319 </v>
   <v>       0.65362807       0.50000145       0.39081536 </v>
   <v>       0.34661468       0.50025862       0.39025828 </v>
   <v>       0.50000352       0.65362693       0.39081458 </v>
   <v>       0.50026061       0.34661329       0.39026011 </v>
   <v>       0.64144742       0.64144611       0.39476960 </v>
   <v>       0.35863072       0.64158692       0.39444405 </v>
   <v>       0.35874469       0.35874303       0.39377196 </v>
   <v>       0.64158809       0.35862945       0.39444741 </v>
   <v>       0.57352165       0.57352248       0.70221756 </v>
   <v>       0.42615410       0.57298722       0.70241636 </v>
   <v>       0.42552658       0.42552896       0.70173825 </v>
   <v>       0.57298628       0.42615491       0.70241676 </v>
   <v>       0.57375845       0.57375646       0.29762030 </v>
   <v>       0.42671686       0.57388970       0.29749652 </v>
   <v>       0.42680589       0.42680246       0.29724758 </v>
   <v>       0.57389206       0.42671408       0.29749815 </v>
   <v>       0.49973324       0.49973322       0.60845051 </v>
   <v>       0.42379476       0.42379371       0.49959861 </v>
   <v>       0.42377930       0.57617347       0.49998154 </v>
   <v>       0.50015551       0.50015431       0.39150440 </v>
   <v>       0.57615000       0.57614932       0.50016920 </v>
   <v>       0.57617456       0.42377854       0.49998435 </v>
  </varray>
 </structure>
</modeling>
