Pt cube particle                        
           1
    18.000000    0.000000    0.000000
     0.000000   18.000000    0.000000
     0.000000    0.000000   18.000000
   Cu   Ag
  32   6
Direct configuration=     1
   0.72257430  0.57309990  0.50020326
   0.57310093  0.72257403  0.50020304
   0.27768266  0.57328361  0.50008765
   0.42649001  0.72224946  0.50032579
   0.27752107  0.42669729  0.49967158
   0.42669656  0.27752145  0.49967177
   0.72224904  0.42648933  0.50032604
   0.57328263  0.27768254  0.50008798
   0.66896875  0.49995173  0.61818177
   0.33052645  0.49955494  0.61777083
   0.49995230  0.66896893  0.61818181
   0.49955423  0.33052680  0.61777078
   0.64859535  0.64859483  0.60775332
   0.35179083  0.64787838  0.60867190
   0.35095914  0.35095981  0.60785692
   0.64787761  0.35179055  0.60867192
   0.66669582  0.49992260  0.38142030
   0.33324668  0.50023761  0.38106483
   0.49992331  0.66669587  0.38141995
   0.50023715  0.33324678  0.38106528
   0.64822278  0.64822213  0.39408735
   0.35147837  0.64865839  0.39385916
   0.35173155  0.35173198  0.39365192
   0.64865782  0.35147791  0.39385971
   0.57638974  0.57638949  0.70826448
   0.42473085  0.57491493  0.70837530
   0.42323825  0.42323859  0.70830097
   0.57491455  0.42473071  0.70837515
   0.57501197  0.57501134  0.28935832
   0.42501837  0.57524295  0.28921835
   0.42516456  0.42516441  0.28927688
   0.57524302  0.42501779  0.28921884
   0.49988834  0.49988836  0.60266917
   0.42580374  0.42580397  0.49972068
   0.42585642  0.57400848  0.49972903
   0.49998908  0.49998890  0.39412654
   0.57405800  0.57405761  0.49977677
   0.57400827  0.42585608  0.49972915
Direct configuration=     2
   0.72217746  0.57288370  0.50020677
   0.57288472  0.72217718  0.50020655
   0.27807231  0.57306817  0.50008868
   0.42670625  0.72185985  0.50032877
   0.27791240  0.42691213  0.49967234
   0.42691139  0.27791277  0.49967253
   0.72185945  0.42670557  0.50032902
   0.57306720  0.27807218  0.50008900
   0.66864782  0.49995417  0.61797456
   0.33084817  0.49954979  0.61756417
   0.49995475  0.66864800  0.61797459
   0.49954907  0.33084851  0.61756412
   0.64828017  0.64827965  0.60758397
   0.35210714  0.64756257  0.60849081
   0.35127895  0.35127963  0.60768271
   0.64756182  0.35210685  0.60849083
   0.66637914  0.49992103  0.38163467
   0.33356523  0.50023863  0.38127907
   0.49992174  0.66637919  0.38163433
   0.50023817  0.33356532  0.38127951
   0.64789911  0.64789846  0.39421804
   0.35180590  0.64833036  0.39398845
   0.35205701  0.35205744  0.39377960
   0.64832980  0.35180544  0.39398900
   0.57626690  0.57626665  0.70782292
   0.42484872  0.57479399  0.70794453
   0.42336160  0.42336194  0.70785404
   0.57479362  0.42484858  0.70794439
   0.57491512  0.57491449  0.28980550
   0.42511342  0.57514989  0.28966585
   0.42526145  0.42526130  0.28972048
   0.57514996  0.42511284  0.28966633
   0.49988724  0.49988726  0.60398764
   0.42500663  0.42500687  0.49967529
   0.42505825  0.57480704  0.49968577
   0.49998966  0.49998950  0.39309005
   0.57485595  0.57485557  0.49973374
   0.57480681  0.42505792  0.49968589
Direct configuration=     3
   0.72098691  0.57223511  0.50021729
   0.57223609  0.72098664  0.50021707
   0.27924126  0.57242185  0.50009176
   0.42735496  0.72069105  0.50033771
   0.27908639  0.42755663  0.49967463
   0.42755590  0.27908673  0.49967482
   0.72069070  0.42735428  0.50033796
   0.57242091  0.27924110  0.50009208
   0.66768503  0.49996149  0.61735292
   0.33181331  0.49953434  0.61694416
   0.49996207  0.66768521  0.61735295
   0.49953361  0.33181365  0.61694412
   0.64733464  0.64733413  0.60707590
   0.35305606  0.64661515  0.60794753
   0.35223841  0.35223909  0.60716006
   0.64661444  0.35305576  0.60794756
   0.66542911  0.49991634  0.38227779
   0.33452087  0.50024170  0.38192176
   0.49991704  0.66542913  0.38227746
   0.50024123  0.33452095  0.38192219
   0.64692807  0.64692744  0.39461010
   0.35278850  0.64734628  0.39437633
   0.35303339  0.35303382  0.39416264
   0.64734574  0.35278802  0.39437686
   0.57589839  0.57589814  0.70649825
   0.42520232  0.57443120  0.70665223
   0.42373167  0.42373202  0.70651323
   0.57443083  0.42520218  0.70665211
   0.57462456  0.57462394  0.29114706
   0.42539857  0.57487070  0.29100836
   0.42555212  0.42555198  0.29105126
   0.57487077  0.42539799  0.29100880
   0.49988392  0.49988396  0.60794307
   0.42261532  0.42261558  0.49953913
   0.42266375  0.57720272  0.49955598
   0.49999140  0.49999128  0.38998059
   0.57724979  0.57724944  0.49960467
   0.57720243  0.42266344  0.49955613
Direct configuration=     4
   0.71860583  0.57093793  0.50023834
   0.57093885  0.71860557  0.50023812
   0.28157916  0.57112921  0.50009792
   0.42865238  0.71835344  0.50035559
   0.28143437  0.42884564  0.49967920
   0.42884491  0.28143466  0.49967939
   0.71835319  0.42865170  0.50035583
   0.57112832  0.28157895  0.50009823
   0.66575945  0.49997615  0.61610964
   0.33374361  0.49950343  0.61570415
   0.49997671  0.66575962  0.61610965
   0.49950269  0.33374394  0.61570413
   0.64544358  0.64544309  0.60605977
   0.35495390  0.64472031  0.60686097
   0.35415733  0.35415799  0.60611475
   0.64471969  0.35495357  0.60686103
   0.66352903  0.49990695  0.38356403
   0.33643216  0.50024783  0.38320715
   0.49990763  0.66352903  0.38356372
   0.50024736  0.33643219  0.38320755
   0.64498601  0.64498540  0.39539423
   0.35475369  0.64537810  0.39515208
   0.35498616  0.35498658  0.39492872
   0.64537763  0.35475319  0.39515258
   0.57516135  0.57516111  0.70384890
   0.42590953  0.57370560  0.70406763
   0.42447181  0.42447216  0.70383160
   0.57370523  0.42590940  0.70406755
   0.57404345  0.57404284  0.29383017
   0.42596886  0.57431231  0.29369337
   0.42613345  0.42613333  0.29371282
   0.57431239  0.42596828  0.29369374
   0.49987730  0.49987737  0.61585393
   0.41783270  0.41783299  0.49926680
   0.41787474  0.58199408  0.49929642
   0.49999489  0.49999484  0.38376166
   0.58203746  0.58203719  0.49934653
   0.58199368  0.41787448  0.49929659
Direct configuration=     5
   0.71964386  0.57150344  0.50022916
   0.57150438  0.71964359  0.50022895
   0.28055996  0.57169273  0.50009524
   0.42808677  0.71937252  0.50034780
   0.28041077  0.42828370  0.49967721
   0.42828297  0.28041108  0.49967740
   0.71937222  0.42808609  0.50034804
   0.57169182  0.28055977  0.50009555
   0.66659890  0.49996976  0.61665165
   0.33290210  0.49951690  0.61624473
   0.49997033  0.66659907  0.61665166
   0.49951617  0.33290243  0.61624471
   0.64626799  0.64626749  0.60650275
   0.35412654  0.64554636  0.60733465
   0.35332078  0.35332145  0.60657045
   0.64554570  0.35412622  0.60733470
   0.66435737  0.49991104  0.38300330
   0.33559894  0.50024515  0.38264679
   0.49991173  0.66435738  0.38300298
   0.50024469  0.33559899  0.38264720
   0.64583265  0.64583203  0.39505239
   0.35389697  0.64623612  0.39481389
   0.35413486  0.35413528  0.39459475
   0.64623562  0.35389648  0.39481440
   0.57548266  0.57548242  0.70500388
   0.42560123  0.57402193  0.70519438
   0.42414915  0.42414949  0.70500065
   0.57402155  0.42560109  0.70519429
   0.57429678  0.57429617  0.29266047
   0.42572024  0.57455574  0.29252284
   0.42588002  0.42587989  0.29255252
   0.57455581  0.42571966  0.29252325
   0.49988019  0.49988025  0.61240520
   0.41991767  0.41991795  0.49938552
   0.41996250  0.57990529  0.49940958
   0.49999337  0.49999329  0.38647279
   0.57995028  0.57994998  0.49945906
   0.57990494  0.41996222  0.49940974
Direct configuration=     6
   0.71923082  0.57097587  0.50024861
   0.57097675  0.71923058  0.50024839
   0.28094253  0.57116474  0.50010830
   0.42862121  0.71898428  0.50036554
   0.28080209  0.42881068  0.49968636
   0.42880993  0.28080240  0.49968655
   0.71898398  0.42862055  0.50036579
   0.57116384  0.28094235  0.50010862
   0.66575085  0.49997749  0.61612802
   0.33376127  0.49950914  0.61573590
   0.49997803  0.66575104  0.61612803
   0.49950839  0.33376161  0.61573588
   0.64573554  0.64573508  0.60636353
   0.35466486  0.64500772  0.60717914
   0.35387386  0.35387453  0.60640581
   0.64500707  0.35466456  0.60717920
   0.66360579  0.49990576  0.38357000
   0.33635525  0.50024662  0.38321645
   0.49990643  0.66360581  0.38356969
   0.50024613  0.33635530  0.38321685
   0.64533276  0.64533218  0.39497718
   0.35441977  0.64571006  0.39474913
   0.35464495  0.35464538  0.39452015
   0.64570987  0.35441881  0.39474992
   0.57541602  0.57541580  0.70424728
   0.42562464  0.57398841  0.70450710
   0.42421343  0.42421381  0.70422588
   0.57398802  0.42562452  0.70450702
   0.57429446  0.57429388  0.29338823
   0.42572097  0.57455771  0.29325874
   0.42587786  0.42587777  0.29326747
   0.57455775  0.42572041  0.29325912
   0.49987365  0.49987375  0.61212232
   0.42025310  0.42025341  0.49949918
   0.42030315  0.57956783  0.49950361
   0.49999750  0.49999746  0.38690563
   0.57961052  0.57961026  0.49956608
   0.57956744  0.42030292  0.49950379
Direct configuration=     7
   0.71799171  0.56939316  0.50030695
   0.56939387  0.71799153  0.50030673
   0.28209025  0.56958077  0.50014751
   0.43022453  0.71781957  0.50041879
   0.28197603  0.43039162  0.49971381
   0.43039083  0.28197635  0.49971401
   0.71781925  0.43022394  0.50041904
   0.56957991  0.28209008  0.50014784
   0.66320670  0.50000068  0.61455714
   0.33633876  0.49948585  0.61420940
   0.50000115  0.66320693  0.61455713
   0.49948505  0.33633914  0.61420941
   0.64413822  0.64413786  0.60594586
   0.35627984  0.64339179  0.60671260
   0.35553308  0.35553376  0.60591189
   0.64339116  0.35627958  0.60671271
   0.66135107  0.49988993  0.38527012
   0.33862417  0.50025101  0.38492543
   0.49989051  0.66135112  0.38526984
   0.50025045  0.33862425  0.38492579
   0.64383309  0.64383263  0.39475155
   0.35598816  0.64413185  0.39455484
   0.35617522  0.35617569  0.39429635
   0.64413260  0.35598582  0.39455649
   0.57521611  0.57521595  0.70197749
   0.42569487  0.57388788  0.70244524
   0.42440630  0.42440675  0.70190156
   0.57388744  0.42569480  0.70244521
   0.57428750  0.57428700  0.29557152
   0.42572314  0.57456360  0.29546643
   0.42587139  0.42587140  0.29541233
   0.57456356  0.42572266  0.29546673
   0.49985404  0.49985426  0.61127365
   0.42125938  0.42125980  0.49984016
   0.42132509  0.57855543  0.49978573
   0.50000987  0.50000996  0.38820416
   0.57859124  0.57859109  0.49988713
   0.57855493  0.42132500  0.49978594
Direct configuration=     8
   0.71551350  0.56622774  0.50042362
   0.56622810  0.71551344  0.50042339
   0.28438568  0.56641282  0.50022592
   0.43343116  0.71549014  0.50052528
   0.28432391  0.43355350  0.49976870
   0.43355261  0.28432425  0.49976892
   0.71548981  0.43343070  0.50052555
   0.56641203  0.28438553  0.50022627
   0.65811840  0.50004705  0.61141538
   0.34149376  0.49943928  0.61115641
   0.50004738  0.65811871  0.61141532
   0.49943838  0.34149420  0.61115647
   0.64094357  0.64094341  0.60511052
   0.35950980  0.64015993  0.60577953
   0.35885153  0.35885222  0.60492404
   0.64015935  0.35950962  0.60577972
   0.65684162  0.49985826  0.38867034
   0.34316203  0.50025979  0.38834340
   0.49985869  0.65684173  0.38867013
   0.50025909  0.34316215  0.38834367
   0.64083377  0.64083352  0.39430030
   0.35912494  0.64097545  0.39416627
   0.35923575  0.35923632  0.39384875
   0.64097807  0.35911982  0.39416961
   0.57481628  0.57481626  0.69743791
   0.42583535  0.57368680  0.69832153
   0.42479202  0.42479263  0.69725293
   0.57368626  0.42583537  0.69832159
   0.57427358  0.57427326  0.29993811
   0.42572749  0.57457538  0.29988180
   0.42585845  0.42585866  0.29970205
   0.57457519  0.42572715  0.29988197
   0.49981483  0.49981528  0.60957632
   0.42327194  0.42327256  0.50052213
   0.42336897  0.57653064  0.50034996
   0.50003461  0.50003496  0.39080122
   0.57655267  0.57655274  0.50052923
   0.57652992  0.42336918  0.50035024
Direct configuration=     9
   0.71593262  0.56676309  0.50040389
   0.56676350  0.71593254  0.50040366
   0.28399747  0.56694859  0.50021266
   0.43288884  0.71588410  0.50050727
   0.28392683  0.43301875  0.49975942
   0.43301788  0.28392717  0.49975964
   0.71588377  0.43288836  0.50050754
   0.56694779  0.28399732  0.50021300
   0.65897895  0.50003921  0.61194672
   0.34062193  0.49944715  0.61167274
   0.50003956  0.65897925  0.61194667
   0.49944627  0.34062236  0.61167280
   0.64148386  0.64148367  0.60525179
   0.35896354  0.64070651  0.60593733
   0.35829031  0.35829099  0.60509111
   0.64070592  0.35896334  0.60593751
   0.65760427  0.49986362  0.38809529
   0.34239457  0.50025831  0.38776534
   0.49986407  0.65760437  0.38809506
   0.50025763  0.34239468  0.38776563
   0.64134102  0.64134074  0.39437662
   0.35859444  0.64150927  0.39423199
   0.35871814  0.35871869  0.39392445
   0.64151157  0.35858979  0.39423504
   0.57488390  0.57488386  0.69820566
   0.42581159  0.57372081  0.69901894
   0.42472679  0.42472737  0.69803912
   0.57372028  0.42581160  0.69901899
   0.57427593  0.57427558  0.29919961
   0.42572676  0.57457339  0.29913506
   0.42586064  0.42586082  0.29897656
   0.57457323  0.42572639  0.29913525
   0.49982146  0.49982187  0.60986338
   0.42293157  0.42293216  0.50040679
   0.42302330  0.57687308  0.50025454
   0.50003043  0.50003074  0.39036200
   0.57689744  0.57689748  0.50042063
   0.57687240  0.42302346  0.50025481
Direct configuration=    10
   0.71600921  0.56704303  0.50034426
   0.56704344  0.71600920  0.50034403
   0.28393670  0.56721120  0.50016748
   0.43261333  0.71596096  0.50046161
   0.28385443  0.43275132  0.49968587
   0.43275047  0.28385480  0.49968610
   0.71596063  0.43261282  0.50046187
   0.56721044  0.28393659  0.50016781
   0.65825066  0.50002158  0.61145218
   0.34139030  0.49949104  0.61116389
   0.50002189  0.65825094  0.61145213
   0.49949018  0.34139069  0.61116395
   0.64189614  0.64189596  0.60495725
   0.35858958  0.64107914  0.60567477
   0.35783568  0.35783635  0.60476058
   0.64107860  0.35858938  0.60567490
   0.65698984  0.49988612  0.38870404
   0.34302396  0.50022889  0.38836901
   0.49988692  0.65699002  0.38870377
   0.50022846  0.34302411  0.38836932
   0.64138217  0.64138186  0.39460666
   0.35852518  0.64156998  0.39447185
   0.35869295  0.35869346  0.39416458
   0.64157133  0.35852173  0.39447451
   0.57482274  0.57482270  0.69896707
   0.42575723  0.57374378  0.69977960
   0.42476192  0.42476252  0.69884250
   0.57374322  0.42575728  0.69977959
   0.57424169  0.57424129  0.29887409
   0.42579894  0.57451273  0.29880466
   0.42592181  0.42592196  0.29864059
   0.57451296  0.42579816  0.29880571
   0.49984442  0.49984481  0.60752878
   0.42384509  0.42384560  0.50011816
   0.42390559  0.57596125  0.50008145
   0.49999588  0.49999600  0.39199522
   0.57598569  0.57598567  0.50022338
   0.57596080  0.42390555  0.50008130
Direct configuration=    11
   0.71602834  0.56711292  0.50032937
   0.56711333  0.71602834  0.50032915
   0.28392153  0.56727677  0.50015619
   0.43254455  0.71598015  0.50045021
   0.28383635  0.43268455  0.49966751
   0.43268371  0.28383674  0.49966774
   0.71597982  0.43254402  0.50045047
   0.56727602  0.28392143  0.50015653
   0.65806882  0.50001717  0.61132871
   0.34158215  0.49950199  0.61103685
   0.50001748  0.65806909  0.61132865
   0.49950115  0.34158253  0.61103690
   0.64199908  0.64199890  0.60488371
   0.35849621  0.64117218  0.60560921
   0.35772217  0.35772284  0.60467805
   0.64117165  0.35849601  0.60560934
   0.65683643  0.49989174  0.38885603
   0.34318110  0.50022155  0.38851973
   0.49989262  0.65683663  0.38885575
   0.50022118  0.34318127  0.38852004
   0.64139245  0.64139212  0.39466410
   0.35850788  0.64158514  0.39453173
   0.35868666  0.35868716  0.39422454
   0.64158626  0.35850473  0.39453430
   0.57480747  0.57480743  0.69915717
   0.42574366  0.57374951  0.69996952
   0.42477069  0.42477129  0.69904308
   0.57374895  0.42574371  0.69996950
   0.57423314  0.57423273  0.29879282
   0.42581696  0.57449758  0.29872216
   0.42593708  0.42593722  0.29855670
   0.57449791  0.42581608  0.29872343
   0.49985016  0.49985053  0.60694589
   0.42407317  0.42407366  0.50004609
   0.42412588  0.57573359  0.50003824
   0.49998726  0.49998733  0.39240299
   0.57575804  0.57575801  0.50017413
   0.57573320  0.42412579  0.50003798
Direct configuration=    12
   0.71591584  0.56748735  0.50026866
   0.56748778  0.71591587  0.50026845
   0.28404725  0.56763532  0.50010977
   0.43217021  0.71586010  0.50040468
   0.28395988  0.43232281  0.49959463
   0.43232199  0.28396027  0.49959485
   0.71585985  0.43216967  0.50040497
   0.56763459  0.28404711  0.50011014
   0.65721968  0.50000228  0.61078304
   0.34245631  0.49953405  0.61048142
   0.50000256  0.65721993  0.61078298
   0.49953326  0.34245667  0.61048147
   0.64227862  0.64227844  0.60438802
   0.35823402  0.64143730  0.60516316
   0.35741079  0.35741145  0.60412722
   0.64143679  0.35823385  0.60516322
   0.65613537  0.49991447  0.38952331
   0.34390361  0.50019094  0.38917555
   0.49991555  0.65613559  0.38952296
   0.50019070  0.34390374  0.38917592
   0.64141490  0.64141453  0.39506697
   0.35846437  0.64162138  0.39493362
   0.35866920  0.35866963  0.39461815
   0.64162179  0.35846226  0.39493567
   0.57449794  0.57449792  0.69966050
   0.42597112  0.57349284  0.70048528
   0.42504584  0.42504648  0.69955849
   0.57349226  0.42597120  0.70048520
   0.57399539  0.57399494  0.29856954
   0.42608520  0.57424496  0.29849716
   0.42619803  0.42619814  0.29831123
   0.57424563  0.42608398  0.29849899
   0.49985638  0.49985663  0.60690569
   0.42387024  0.42387063  0.49984037
   0.42390256  0.57594769  0.49990259
   0.49997271  0.49997280  0.39229355
   0.57596491  0.57596483  0.50001480
   0.57594736  0.42390244  0.49990231
Direct configuration=    13
   0.71572618  0.56811860  0.50016630
   0.56811906  0.71572627  0.50016613
   0.28425919  0.56823980  0.50003150
   0.43153912  0.71565771  0.50032791
   0.28416814  0.43171294  0.49947176
   0.43171217  0.28416853  0.49947196
   0.71565758  0.43153854  0.50032825
   0.56823911  0.28425899  0.50003194
   0.65578809  0.49997717  0.60986308
   0.34393006  0.49958810  0.60954502
   0.49997741  0.65578833  0.60986302
   0.49958740  0.34393040  0.60954506
   0.64274990  0.64274972  0.60355235
   0.35779201  0.64188428  0.60441115
   0.35688581  0.35688647  0.60319855
   0.64188379  0.35779188  0.60441112
   0.65495346  0.49995278  0.39064828
   0.34512169  0.50013934  0.39028122
   0.49995420  0.65495369  0.39064782
   0.50013933  0.34512178  0.39028166
   0.64145275  0.64145229  0.39574618
   0.35839102  0.64168248  0.39561117
   0.35863976  0.35864009  0.39528175
   0.64168169  0.35839065  0.39561236
   0.57397610  0.57397610  0.70050905
   0.42635461  0.57306011  0.70135481
   0.42550973  0.42551041  0.70042742
   0.57305950  0.42635473  0.70135462
   0.57359457  0.57359403  0.29819311
   0.42653744  0.57381905  0.29811782
   0.42663797  0.42663801  0.29789740
   0.57382029  0.42653562  0.29812059
   0.49986688  0.49986690  0.60683792
   0.42352810  0.42352834  0.49949353
   0.42352608  0.57630864  0.49967390
   0.49994819  0.49994830  0.39210903
   0.57631367  0.57631351  0.49974617
   0.57630842  0.42352589  0.49967357
Direct configuration=    14
   0.71592328  0.56817265  0.50015701
   0.56817322  0.71592319  0.50015687
   0.28404759  0.56831611  0.50001775
   0.43146949  0.71586675  0.50032042
   0.28397409  0.43165295  0.49944421
   0.43165229  0.28397426  0.49944440
   0.71586682  0.43146884  0.50032085
   0.56831269  0.28404736  0.50001956
   0.65482800  0.49997702  0.60941323
   0.34488875  0.49959406  0.60911299
   0.49997732  0.65482812  0.60941317
   0.49959349  0.34488897  0.60911304
   0.64269447  0.64269423  0.60360432
   0.35781238  0.64184979  0.60442393
   0.35693158  0.35693217  0.60319481
   0.64184938  0.35781218  0.60442388
   0.65426345  0.49995160  0.39100595
   0.34581992  0.50015161  0.39064940
   0.49995275  0.65426341  0.39100548
   0.50015144  0.34581975  0.39064984
   0.64161340  0.64161279  0.39553260
   0.35825423  0.64182270  0.39541178
   0.35846472  0.35846490  0.39500305
   0.64182239  0.35825359  0.39541259
   0.57381327  0.57381323  0.70048472
   0.42646917  0.57292259  0.70133225
   0.42566092  0.42566156  0.70035781
   0.57292215  0.42646915  0.70133210
   0.57350482  0.57350412  0.29816303
   0.42664102  0.57373301  0.29808814
   0.42672580  0.42672568  0.29781381
   0.57373410  0.42663934  0.29809025
   0.49983009  0.49983013  0.60745093
   0.42373918  0.42373940  0.49985834
   0.42374874  0.57611697  0.49994063
   0.49999011  0.49999040  0.39184901
   0.57609734  0.57609718  0.50005148
   0.57611662  0.42374870  0.49994087
Direct configuration=    15
   0.71601317  0.56819729  0.50015277
   0.56819793  0.71601300  0.50015265
   0.28395108  0.56835092  0.50001148
   0.43143774  0.71596208  0.50031700
   0.28388560  0.43162560  0.49943165
   0.43162498  0.28388566  0.49943183
   0.71596225  0.43143706  0.50031748
   0.56834625  0.28395084  0.50001392
   0.65439015  0.49997696  0.60920807
   0.34532597  0.49959679  0.60891596
   0.49997728  0.65439021  0.60920801
   0.49959627  0.34532614  0.60891601
   0.64266919  0.64266893  0.60362803
   0.35782168  0.64183406  0.60442976
   0.35695245  0.35695301  0.60319310
   0.64183369  0.35782143  0.60442971
   0.65394876  0.49995106  0.39116907
   0.34613835  0.50015721  0.39081731
   0.49995208  0.65394861  0.39116859
   0.50015696  0.34613806  0.39081775
   0.64168667  0.64168598  0.39543519
   0.35819185  0.64188665  0.39532084
   0.35838490  0.35838501  0.39487594
   0.64188656  0.35819108  0.39532148
   0.57373901  0.57373895  0.70047363
   0.42652142  0.57285987  0.70132196
   0.42572986  0.42573049  0.70032606
   0.57285951  0.42652133  0.70132183
   0.57346389  0.57346311  0.29814931
   0.42668825  0.57369377  0.29807461
   0.42676585  0.42676566  0.29777568
   0.57369480  0.42668664  0.29807641
   0.49981332  0.49981336  0.60773050
   0.42383544  0.42383565  0.50002471
   0.42385029  0.57602956  0.50006227
   0.50000923  0.50000960  0.39173043
   0.57599867  0.57599852  0.50019072
   0.57602915  0.42385031  0.50006277
Direct configuration=    16
   0.71600791  0.56804264  0.50014163
   0.56804331  0.71600770  0.50014150
   0.28394950  0.56821195  0.49998545
   0.43159068  0.71596840  0.50030143
   0.28388470  0.43177434  0.49939805
   0.43177284  0.28388464  0.49939824
   0.71596840  0.43159002  0.50030190
   0.56820802  0.28394924  0.49998780
   0.65402476  0.49997634  0.60908255
   0.34566921  0.49959806  0.60879790
   0.49997665  0.65402477  0.60908246
   0.49959734  0.34566944  0.60879834
   0.64248794  0.64248764  0.60392127
   0.35795098  0.64168568  0.60466576
   0.35711795  0.35711853  0.60348866
   0.64168535  0.35795064  0.60466581
   0.65371082  0.49994379  0.39118858
   0.34638148  0.50015642  0.39085512
   0.49994463  0.65371058  0.39118811
   0.50015611  0.34638121  0.39085550
   0.64163937  0.64163865  0.39527864
   0.35826261  0.64181848  0.39516232
   0.35846161  0.35846172  0.39468460
   0.64181848  0.35826165  0.39516337
   0.57390606  0.57390600  0.70047717
   0.42632292  0.57305006  0.70131463
   0.42554831  0.42555135  0.70029924
   0.57304978  0.42632276  0.70131458
   0.57361543  0.57361208  0.29813517
   0.42655420  0.57383485  0.29807625
   0.42663752  0.42663722  0.29777626
   0.57383544  0.42655299  0.29807755
   0.49981904  0.49981934  0.60783938
   0.42369619  0.42369651  0.49997906
   0.42371722  0.57616397  0.50004036
   0.49999967  0.49999972  0.39190357
   0.57615412  0.57615404  0.50019582
   0.57616391  0.42371707  0.50004047
Direct configuration=    17
   0.71600376  0.56792048  0.50013282
   0.56792117  0.71600351  0.50013270
   0.28394825  0.56810219  0.49996489
   0.43171149  0.71597339  0.50028913
   0.28388400  0.43189183  0.49937152
   0.43188963  0.28388383  0.49937172
   0.71597326  0.43171085  0.50028960
   0.56809883  0.28394797  0.49996717
   0.65373615  0.49997585  0.60898340
   0.34594033  0.49959906  0.60870465
   0.49997614  0.65373611  0.60898329
   0.49959819  0.34594061  0.60870540
   0.64234477  0.64234445  0.60415289
   0.35805312  0.64156849  0.60485217
   0.35724868  0.35724926  0.60372212
   0.64156818  0.35805269  0.60485231
   0.65352287  0.49993804  0.39120398
   0.34657353  0.50015580  0.39088498
   0.49993875  0.65352256  0.39120353
   0.50015544  0.34657328  0.39088531
   0.64160201  0.64160126  0.39515498
   0.35831850  0.64176462  0.39503710
   0.35852220  0.35852231  0.39453346
   0.64176470  0.35831740  0.39503848
   0.57403802  0.57403796  0.70047997
   0.42616612  0.57320028  0.70130885
   0.42540491  0.42540984  0.70027806
   0.57320008  0.42616591  0.70130885
   0.57373514  0.57372974  0.29812399
   0.42644832  0.57394629  0.29807754
   0.42653616  0.42653577  0.29777672
   0.57394653  0.42644743  0.29807845
   0.49982356  0.49982406  0.60792538
   0.42358620  0.42358660  0.49994299
   0.42361211  0.57627014  0.50002305
   0.49999212  0.49999191  0.39204034
   0.57627691  0.57627687  0.50019985
   0.57627035  0.42361182  0.50002286
Direct configuration=    18
   0.71604109  0.56783395  0.50010817
   0.56783463  0.71604088  0.50010801
   0.28392441  0.56802579  0.49993503
   0.43178462  0.71599575  0.50027389
   0.28385877  0.43197500  0.49932845
   0.43197251  0.28385884  0.49932874
   0.71599585  0.43178400  0.50027439
   0.56802306  0.28392416  0.49993706
   0.65368413  0.49995530  0.60901079
   0.34599751  0.49960067  0.60871148
   0.49995562  0.65368419  0.60901065
   0.49959938  0.34599824  0.60871248
   0.64232075  0.64232039  0.60436938
   0.35806341  0.64155324  0.60503529
   0.35730277  0.35730341  0.60389293
   0.64155277  0.35806301  0.60503545
   0.65351747  0.49994792  0.39112636
   0.34656491  0.50016707  0.39080367
   0.49994894  0.65351674  0.39112571
   0.50016671  0.34656459  0.39080415
   0.64159665  0.64159590  0.39505459
   0.35832273  0.64176502  0.39491873
   0.35852810  0.35852824  0.39439578
   0.64176513  0.35832149  0.39491992
   0.57410369  0.57410356  0.70064793
   0.42607039  0.57327978  0.70144726
   0.42530573  0.42531040  0.70040839
   0.57327922  0.42607040  0.70144702
   0.57372624  0.57372144  0.29813784
   0.42646494  0.57393244  0.29808340
   0.42655098  0.42655060  0.29777595
   0.57393277  0.42646376  0.29808400
   0.49982336  0.49982310  0.60784509
   0.42364813  0.42364804  0.49991613
   0.42370175  0.57619392  0.50000730
   0.50002035  0.50002040  0.39183886
   0.57618741  0.57618718  0.50013665
   0.57619361  0.42370161  0.50000760
Direct configuration=    19
   0.71604567  0.56782334  0.50010515
   0.56782401  0.71604547  0.50010498
   0.28392149  0.56801642  0.49993136
   0.43179359  0.71599850  0.50027202
   0.28385567  0.43198520  0.49932317
   0.43198268  0.28385577  0.49932347
   0.71599863  0.43179297  0.50027253
   0.56801376  0.28392124  0.49993337
   0.65367775  0.49995278  0.60901415
   0.34600452  0.49960086  0.60871232
   0.49995310  0.65367782  0.60901401
   0.49959952  0.34600531  0.60871335
   0.64231781  0.64231744  0.60439593
   0.35806467  0.64155137  0.60505775
   0.35730941  0.35731006  0.60391389
   0.64155088  0.35806428  0.60505792
   0.65351681  0.49994913  0.39111684
   0.34656385  0.50016845  0.39079370
   0.49995019  0.65351602  0.39111616
   0.50016809  0.34656353  0.39079419
   0.64159599  0.64159525  0.39504228
   0.35832325  0.64176507  0.39490421
   0.35852882  0.35852896  0.39437889
   0.64176519  0.35832200  0.39490537
   0.57411174  0.57411161  0.70066854
   0.42605865  0.57328954  0.70146424
   0.42529356  0.42529820  0.70042438
   0.57328893  0.42605868  0.70146398
   0.57372514  0.57372042  0.29813953
   0.42646698  0.57393074  0.29808411
   0.42655279  0.42655242  0.29777586
   0.57393109  0.42646577  0.29808468
   0.49982333  0.49982299  0.60783524
   0.42365572  0.42365558  0.49991283
   0.42371274  0.57618457  0.50000536
   0.50002381  0.50002390  0.39181415
   0.57617643  0.57617618  0.50012890
   0.57618419  0.42371263  0.50000572
Direct configuration=    20
   0.71602140  0.56775582  0.50007625
   0.56775632  0.71602130  0.50007600
   0.28395712  0.56796425  0.49988679
   0.43183304  0.71596716  0.50025024
   0.28387863  0.43204495  0.49925861
   0.43204223  0.28387891  0.49925906
   0.71596716  0.43183252  0.50025082
   0.56796226  0.28395655  0.49989169
   0.65365612  0.49993199  0.60907547
   0.34603883  0.49960935  0.60874627
   0.49993219  0.65365629  0.60907529
   0.49960745  0.34603997  0.60874746
   0.64225196  0.64225170  0.60455107
   0.35809893  0.64151291  0.60521013
   0.35737878  0.35737976  0.60402907
   0.64151211  0.35809868  0.60521035
   0.65357441  0.49995446  0.39102442
   0.34650579  0.50018290  0.39068288
   0.49995582  0.65357350  0.39102357
   0.50018248  0.34650557  0.39068352
   0.64158649  0.64158586  0.39497186
   0.35834460  0.64175348  0.39480234
   0.35854933  0.35854970  0.39426490
   0.64175332  0.35834353  0.39480346
   0.57410389  0.57410388  0.70089051
   0.42602211  0.57330047  0.70162514
   0.42525279  0.42525698  0.70060057
   0.57329951  0.42602232  0.70162501
   0.57372235  0.57371892  0.29808469
   0.42648351  0.57391539  0.29802331
   0.42658034  0.42658011  0.29771984
   0.57391817  0.42648052  0.29802419
   0.49982370  0.49982310  0.60807822
   0.42363117  0.42363122  0.49983816
   0.42368251  0.57621346  0.49996171
   0.50003145  0.50003159  0.39164741
   0.57621917  0.57621900  0.50007218
   0.57621306  0.42368240  0.49996204
Direct configuration=    21
   0.71600301  0.56770465  0.50005434
   0.56770502  0.71600299  0.50005403
   0.28398413  0.56792471  0.49985300
   0.43186294  0.71594340  0.50023373
   0.28389604  0.43209024  0.49920968
   0.43208736  0.28389645  0.49921024
   0.71594330  0.43186249  0.50023436
   0.56792322  0.28398332  0.49986011
   0.65363973  0.49991623  0.60912194